# vtk DataFile Version 2.0
track0
ASCII
DATASET POLYDATA
POINTS 11000 float
-0.0205 0.001 1e-05
-0.02052 0.00100031 1e-05
-0.02054 0.00100057 1e-05
-0.02056 0.00100076 1e-05
-0.02058 0.00100088 1e-05
-0.0206 0.00100095 1e-05
-0.0205 0.00367778 1e-05
-0.02052 0.00367794 1e-05
-0.02054 0.00367807 1e-05
-0.02056 0.00367817 1e-05
-0.02058 0.00367824 1e-05
-0.0206 0.00367827 1e-05
-0.0205 0.00635556 1e-05
-0.02052 0.00635561 1e-05
-0.02054 0.00635565 1e-05
-0.02056 0.00635568 1e-05
-0.02058 0.0063557 1e-05
-0.0206 0.00635571 1e-05
-0.0205 0.00903333 1e-05
-0.02052 0.00903336 1e-05
-0.02054 0.00903338 1e-05
-0.02056 0.00903339 1e-05
-0.02058 0.0090334 1e-05
-0.0206 0.00903341 1e-05
-0.0205 0.0117111 1e-05
-0.02052 0.0117111 1e-05
-0.02054 0.0117111 1e-05
-0.02056 0.0117111 1e-05
-0.02058 0.0117111 1e-05
-0.0206 0.0117111 1e-05
-0.0205 0.0143889 1e-05
-0.02052 0.0143889 1e-05
-0.02054 0.0143889 1e-05
-0.02056 0.0143889 1e-05
-0.02058 0.0143889 1e-05
-0.0206 0.0143889 1e-05
-0.0205 0.0170667 1e-05
-0.02052 0.0170666 1e-05
-0.02054 0.0170666 1e-05
-0.02056 0.0170666 1e-05
-0.02058 0.0170666 1e-05
-0.0206 0.0170666 1e-05
-0.0205 0.0197444 1e-05
-0.02052 0.0197444 1e-05
-0.02054 0.0197443 1e-05
-0.02056 0.0197442 1e-05
-0.02058 0.0197442 1e-05
-0.0206 0.0197442 1e-05
-0.0205 0.0224222 1e-05
-0.02052 0.022422 1e-05
-0.02054 0.0224219 1e-05
-0.02056 0.0224217 1e-05
-0.02058 0.0224217 1e-05
-0.0206 0.0224216 1e-05
-0.0205 0.0251 1e-05
-0.02052 0.025098 1e-05
-0.02054 0.0250964 1e-05
-0.0205601 0.0250952 1e-05
-0.0205802 0.0250944 1e-05
-0.0206 0.025094 1e-05
-0.0205 0.001 1e-05
-0.0202034 0.000995343 1e-05
-0.0199071 0.000981598 1e-05
-0.0196114 0.000958866 1e-05
-0.0193165 0.000926875 1e-05
-0.0190172 0.000887565 1e-05
-0.0187132 0.000848164 1e-05
-0.0184092 0.00080967 1e-05
-0.0181051 0.000772063 1e-05
-0.0178006 0.000737274 1e-05
-0.0174976 0.000705372 1e-05
-0.017404 0.00069641 1e-05
-0.0173104 0.000687741 1e-05
-0.0172168 0.000679315 1e-05
-0.0171232 0.000671103 1e-05
-0.0169999 0.000660565 1e-05
-0.0168077 0.000644692 1e-05
-0.0166154 0.00062972 1e-05
-0.016423 0.000615609 1e-05
-0.0162305 0.000602316 1e-05
-0.0160387 0.000589747 1e-05
-0.0157586 0.000571877 1e-05
-0.0154783 0.000555549 1e-05
-0.0151981 0.00054051 1e-05
-0.0149177 0.00052659 1e-05
-0.0146381 0.000513284 1e-05
-0.0143692 0.000500917 1e-05
-0.0141002 0.000489615 1e-05
-0.0138312 0.000479299 1e-05
-0.0135621 0.000469579 1e-05
-0.0132934 0.000460158 1e-05
-0.0130353 0.000451379 1e-05
-0.0127771 0.000443379 1e-05
-0.0125188 0.000436045 1e-05
-0.0122606 0.00042904 1e-05
-0.0120025 0.000422257 1e-05
-0.0117547 0.0004159 1e-05
-0.0115068 0.000410116 1e-05
-0.0112589 0.000404686 1e-05
-0.011011 0.000399488 1e-05
-0.0107632 0.000394492 1e-05
-0.0105252 0.000389778 1e-05
-0.0102873 0.000385493 1e-05
-0.0100493 0.000381382 1e-05
-0.0098113 0.000377435 1e-05
-0.00957337 0.00037365 1e-05
-0.00934491 0.00037007 1e-05
-0.00911645 0.000366769 1e-05
-0.00888798 0.000363587 1e-05
-0.00865952 0.000360521 1e-05
-0.00843108 0.000357571 1e-05
-0.00821175 0.000354786 1e-05
-0.00799242 0.00035218 1e-05
-0.00777309 0.000349659 1e-05
-0.00755375 0.000347221 1e-05
-0.00733443 0.000344864 1e-05
-0.00712387 0.000342644 1e-05
-0.0069133 0.000340534 1e-05
-0.00670273 0.000338483 1e-05
-0.00649216 0.00033649 1e-05
-0.0062816 0.000334553 1e-05
-0.00607944 0.000332727 1e-05
-0.00587729 0.000330965 1e-05
-0.00567514 0.000329239 1e-05
-0.00547298 0.000327548 1e-05
-0.00527083 0.000325892 1e-05
-0.00509595 0.000324482 1e-05
-0.00492108 0.000323092 1e-05
-0.0047462 0.000321712 1e-05
-0.00457133 0.000320343 1e-05
-0.00437797 0.000318841 1e-05
-0.00436247 0.000318721 1e-05
-0.00434696 0.000318602 1e-05
-0.00433146 0.000318482 1e-05
-0.00431595 0.000318363 1e-05
-0.00430044 0.000318244 1e-05
-0.00411412 0.000316811 1e-05
-0.0039278 0.000315364 1e-05
-0.00374147 0.000313899 1e-05
-0.00355515 0.000312418 1e-05
-0.00336883 0.00031092 1e-05
-0.00318995 0.000309442 1e-05
-0.00301107 0.000307922 1e-05
-0.00283219 0.000306328 1e-05
-0.00265331 0.000304662 1e-05
-0.00247443 0.000302923 1e-05
-0.0023027 0.000301133 1e-05
-0.00213097 0.000299238 1e-05
-0.00195924 0.000297152 1e-05
-0.00178751 0.000294877 1e-05
-0.00161577 0.000292414 1e-05
-0.0014509 0.000289764 1e-05
-0.00128604 0.000286827 1e-05
-0.00112118 0.000283289 1e-05
-0.000956341 0.000279163 1e-05
-0.000791418 0.000274456 1e-05
-0.000633135 0.000269048 1e-05
-0.000474881 0.000262826 1e-05
-0.000316696 0.000255058 1e-05
-0.000158592 0.000245776 1e-05
0 0.000234941 1e-05
0.000105677 0.000226328 1e-05
0.000211158 0.000215573 1e-05
0.000316494 0.000203475 1e-05
0.000421716 0.000190427 1e-05
0.000528387 0.000177653 1e-05
0.000634886 0.000165693 1e-05
0.000741296 0.000152962 1e-05
0.000847614 0.000139488 1e-05
0.000953941 0.000126082 1e-05
0.00106088 0.000113529 1e-05
0.00116821 0.000101922 1e-05
0.00127552 9.01549e-05 1e-05
0.00138284 7.8465e-05 1e-05
0.00149019 6.70741e-05 1e-05
0.00159752 5.59996e-05 1e-05
0.00170568 4.55303e-05 1e-05
0.00181385 3.51274e-05 1e-05
0.00192204 2.49809e-05 1e-05
0.00203026 1.50883e-05 1e-05
0.00213833 5.46208e-06 1e-05
0.00215094 4.36967e-06 1e-05
0.00216356 3.27847e-06 1e-05
0.00217618 2.18988e-06 1e-05
0.0021888 1.1039e-06 1e-05
0.00220166 0 1e-05
0.00229799 -8.25028e-06 1e-05
0.00239434 -1.63456e-05 1e-05
0.0024907 -2.42871e-05 1e-05
0.00258708 -3.20763e-05 1e-05
0.00268334 -3.97044e-05 1e-05
0.00279319 -4.81085e-05 1e-05
0.00290304 -5.65292e-05 1e-05
0.0030129 -6.48095e-05 1e-05
0.00312277 -7.29507e-05 1e-05
0.00323259 -8.09498e-05 1e-05
0.00334329 -8.86871e-05 1e-05
0.00345399 -9.65036e-05 1e-05
0.00356469 -0.000104258 1e-05
0.0036754 -0.000111909 1e-05
0.00378611 -0.000119393 1e-05
0.00389767 -0.00012669 1e-05
0.00400923 -0.000134046 1e-05
0.00412079 -0.00014143 1e-05
0.00423236 -0.000148738 1e-05
0.00434393 -0.000155872 1e-05
0.00445636 -0.000162876 1e-05
0.00456879 -0.00016993 1e-05
0.00468122 -0.000177032 1e-05
0.00479365 -0.000184082 1e-05
0.00490609 -0.000190993 1e-05
0.0050194 -0.000197817 1e-05
0.0051327 -0.000204687 1e-05
0.005246 -0.000211604 1e-05
0.0053593 -0.000218497 1e-05
0.00547262 -0.000225285 1e-05
0.00558681 -0.000232019 1e-05
0.00570099 -0.000238799 1e-05
0.00581517 -0.000245616 1e-05
0.00592936 -0.000252422 1e-05
0.00604356 -0.000259169 1e-05
0.00615863 -0.000265889 1e-05
0.0062737 -0.000272657 1e-05
0.00638877 -0.000279447 1e-05
0.00650384 -0.000286237 1e-05
0.00661893 -0.000293015 1e-05
0.0067349 -0.000299789 1e-05
0.00685087 -0.000306614 1e-05
0.00696683 -0.000313452 1e-05
0.0070828 -0.000320301 1e-05
0.00719878 -0.000327162 1e-05
0.00731565 -0.000334049 1e-05
0.00743252 -0.00034098 1e-05
0.00754939 -0.000347932 1e-05
0.00766625 -0.000354904 1e-05
0.00778313 -0.000361898 1e-05
0.00785398 -0.000366143 1e-05
0.00792483 -0.000370402 1e-05
0.00799568 -0.000374673 1e-05
0.00806653 -0.000378955 1e-05
0.00813519 -0.000383115 1e-05
0.00818256 -0.000385991 1e-05
0.00822993 -0.000388873 1e-05
0.0082773 -0.00039176 1e-05
0.00832466 -0.000394651 1e-05
0.00837203 -0.000397548 1e-05
0.00849073 -0.000404812 1e-05
0.00860942 -0.000412123 1e-05
0.00872811 -0.000419474 1e-05
0.0088468 -0.000426864 1e-05
0.00896551 -0.000434294 1e-05
0.00908513 -0.0004418 1e-05
0.00920474 -0.000449381 1e-05
0.00932435 -0.000457009 1e-05
0.00944396 -0.000464683 1e-05
0.0095636 -0.000472406 1e-05
0.00968415 -0.000480206 1e-05
0.00980469 -0.000488098 1e-05
0.00992523 -0.000496049 1e-05
0.0100458 -0.000504054 1e-05
0.0101663 -0.000512107 1e-05
0.0102878 -0.000520247 1e-05
0.0104093 -0.000528483 1e-05
0.0105308 -0.000536801 1e-05
0.0106523 -0.00054518 1e-05
0.0107738 -0.000553606 1e-05
0.0108962 -0.000562132 1e-05
0.0110186 -0.000570757 1e-05
0.011141 -0.000579481 1e-05
0.0112635 -0.000588272 1e-05
0.0113859 -0.000597115 1e-05
0.0115093 -0.00060607 1e-05
0.0116327 -0.000615128 1e-05
0.011756 -0.000624289 1e-05
0.0118794 -0.000633529 1e-05
0.0120028 -0.000642831 1e-05
0.0121272 -0.000652258 1e-05
0.0122515 -0.000661791 1e-05
0.0123758 -0.00067143 1e-05
0.0125001 -0.000681156 1e-05
0.0126245 -0.000690959 1e-05
0.0127498 -0.000700899 1e-05
0.0128751 -0.00071095 1e-05
0.0130004 -0.000721102 1e-05
0.0131257 -0.000731349 1e-05
0.0132511 -0.000741694 1e-05
0.0133774 -0.000752188 1e-05
0.0135036 -0.000762797 1e-05
0.0136299 -0.000773507 1e-05
0.0137562 -0.000784317 1e-05
0.0138825 -0.000795236 1e-05
0.0139859 -0.000804246 1e-05
0.0140893 -0.000813331 1e-05
0.0141927 -0.000822487 1e-05
0.014296 -0.000831713 1e-05
0.0143909 -0.00084024 1e-05
0.0144164 -0.000842558 1e-05
0.014442 -0.000844879 1e-05
0.0144676 -0.000847205 1e-05
0.0144932 -0.000849536 1e-05
0.0145188 -0.000851871 1e-05
0.0146471 -0.000863593 1e-05
0.0147753 -0.00087543 1e-05
0.0149035 -0.00088738 1e-05
0.0150318 -0.000899443 1e-05
0.0151601 -0.000911629 1e-05
0.0152893 -0.000924008 1e-05
0.0154186 -0.000936522 1e-05
0.0155478 -0.000949154 1e-05
0.015677 -0.000961905 1e-05
0.0158063 -0.000974784 1e-05
0.0159366 -0.000987863 1e-05
0.0160668 -0.00100109 1e-05
0.0161971 -0.00101444 1e-05
0.0163273 -0.00102792 1e-05
0.0164576 -0.00104153 1e-05
0.0165889 -0.00105535 1e-05
0.0167201 -0.00106932 1e-05
0.0168514 -0.00108344 1e-05
0.0169826 -0.00109768 1e-05
0.0171139 -0.00111207 1e-05
0.0172462 -0.00112668 1e-05
0.0173785 -0.00114143 1e-05
0.0175108 -0.00115634 1e-05
0.017643 -0.0011714 1e-05
0.0177754 -0.0011866 1e-05
0.0179087 -0.00120203 1e-05
0.018042 -0.00121763 1e-05
0.0181753 -0.00123337 1e-05
0.0183086 -0.00124926 1e-05
0.018442 -0.00126532 1e-05
0.0185763 -0.00128164 1e-05
0.0187107 -0.00129811 1e-05
0.018845 -0.00131473 1e-05
0.0189793 -0.00133151 1e-05
0.0191137 -0.00134846 1e-05
0.0191329 -0.0013509 1e-05
0.0191521 -0.00135335 1e-05
0.0191713 -0.0013558 1e-05
0.0191905 -0.00135825 1e-05
0.0192094 -0.00136067 1e-05
0.0193257 -0.00137557 1e-05
0.0194419 -0.00139057 1e-05
0.0195582 -0.0014057 1e-05
0.0196744 -0.00142095 1e-05
0.0197907 -0.00143633 1e-05
0.0199272 -0.0014545 1e-05
0.0200636 -0.00147285 1e-05
0.0202 -0.00149137 1e-05
0.0203364 -0.00151005 1e-05
[...]
POINT_DATA 11000
 FIELD attributes 1
U 3 11000 float
0.154394 	-0.0024243 	0 0.153928 	-0.00193944 	0 0.153452 	-0.00145456 	0 0.152968 	-0.000969659 	0 0.152475 	-0.00048475 	0 0.151972 	0 	0
0.494669 	-0.00405689 	0 0.494803 	-0.00324551 	0 0.494933 	-0.00243412 	0 0.49506 	-0.00162273 	0 0.495182 	-0.000811327 	0 0.495302 	0 	0
0.750915 	-0.00192049 	0 0.751011 	-0.00153716 	0 0.751107 	-0.00115381 	0 0.751201 	-0.000770432 	0 0.751295 	-0.000387037 	0 0.751385 	0 	0
0.91283 	-0.00110895 	0 0.912806 	-0.000887157 	0 0.912782 	-0.000665368 	0 0.912758 	-0.000443578 	0 0.912734 	-0.000221789 	0 0.91271 	0 	0
0.984962 	-0.000164427 	0 0.984756 	-0.000131542 	0 0.984551 	-9.86562e-05 	0 0.984345 	-6.57708e-05 	0 0.98414 	-3.28854e-05 	0 0.983934 	0 	0
0.970472 	0.000330451 	0 0.970176 	0.00026436 	0 0.969881 	0.00019827 	0 0.969586 	0.00013218 	0 0.96929 	6.60901e-05 	0 0.968995 	0 	0
0.878003 	0.00152785 	0 0.877947 	0.00122228 	0 0.877891 	0.000916709 	0 0.877835 	0.000611139 	0 0.877778 	0.000305569 	0 0.87772 	0 	0
0.690825 	0.00295218 	0 0.690892 	0.00236174 	0 0.690957 	0.0017713 	0 0.691021 	0.00118087 	0 0.691083 	0.000590425 	0 0.691143 	0 	0
0.413872 	0.00417562 	0 0.413989 	0.0033405 	0 0.414101 	0.00250536 	0 0.414209 	0.00167021 	0 0.414312 	0.000835046 	0 0.414411 	0 	0
0.0545899 	0.00544922 	0 0.054609 	0.00435937 	0 0.0545842 	0.00326759 	0 0.0545156 	0.00217429 	0 0.0544031 	0.0010799 	0 0.0542486 	0 	0
0.154394 	-0.0024243 	0 0.159609 	-0.00740439 	0 0.163635 	-0.0125783 	0 0.166582 	-0.0180729 	0 0.168435 	-0.0221159 	0 0.169561 	-0.0219827 	0 0.170608 	-0.0216006 	0 0.171764 	-0.021238 	0 0.175627 	-0.0200664 	0 0.179879 	-0.0189385 	0 0.184903 	-0.0177119 	0 0.186713 	-0.0172978 	0 0.18826 	-0.016947 	0 0.189653 	-0.0166366 	0 0.191073 	-0.0163306 	0 0.192977 	-0.0159336 	0 0.196212 	-0.0152743 	0 0.19955 	-0.014637 	0 0.202984 	-0.0140207 	0 0.205746 	-0.0134801 	0 0.206032 	-0.0131434 	0 0.212724 	-0.0123953 	0 0.218091 	-0.0117025 	0 0.222592 	-0.011052 	0 0.223063 	-0.0106144 	0 0.222591 	-0.010236 	0 0.229822 	-0.00965699 	0 0.237247 	-0.0090973 	0 0.240239 	-0.00867969 	0 0.238855 	-0.00837546 	0 0.237528 	-0.00807626 	0 0.24508 	-0.00759311 	0 0.251823 	-0.00715277 	0 0.253685 	-0.00688099 	0 0.252785 	-0.00664488 	0 0.250606 	-0.00642654 	0 0.258365 	-0.00602913 	0 0.262364 	-0.00574682 	0 0.264015 	-0.00553635 	0 0.26481 	-0.00533889 	0 0.261838 	-0.00518619 	0 0.269767 	-0.0048581 	0 0.271402 	-0.00468802 	0 0.272855 	-0.00452548 	0 0.274358 	-0.00436471 	0 0.271456 	-0.00425379 	0 0.277887 	-0.00401484 	0 0.279125 	-0.00388823 	0 0.280402 	-0.00376277 	0 0.281716 	-0.00363843 	0 0.279696 	-0.00355083 	0 0.28465 	-0.00338157 	0 0.285749 	-0.00328506 	0 0.286877 	-0.00318928 	0 0.288032 	-0.00309423 	0 0.286813 	-0.00302516 	0 0.290501 	-0.00290969 	0 0.291488 	-0.0028392 	0 0.292496 	-0.00276917 	0 0.293523 	-0.0026996 	0 0.293045 	-0.00264694 	0 0.295642 	-0.00257717 	0 0.296548 	-0.00253249 	0 0.297467 	-0.00248809 	0 0.298398 	-0.00244395 	0 0.298627 	-0.00240835 	0 0.300187 	-0.00238608 	0 0.300962 	-0.00237425 	0 0.301741 	-0.00236249 	0 0.302523 	-0.00235081 	0 0.303393 	-0.00233798 	0 0.30346 	-0.00233684 	0 0.303527 	-0.00233569 	0 0.303594 	-0.00233455 	0 0.303662 	-0.0023334 	0 0.303396 	-0.00233282 	0 0.304559 	-0.0023662 	0 0.305391 	-0.00240029 	0 0.306215 	-0.00243422 	0 0.307033 	-0.00246802 	0 0.303341 	-0.00250696 	0 0.308687 	-0.00262339 	0 0.309603 	-0.00275827 	0 0.310488 	-0.00289239 	0 0.311342 	-0.00302574 	0 0.302912 	-0.00315866 	0 0.313236 	-0.00345548 	0 0.314457 	-0.00382009 	0 0.315595 	-0.00418187 	0 0.316651 	-0.00454084 	0 0.301742 	-0.00484947 	0 0.319276 	-0.00568774 	0 0.320783 	-0.00688353 	0 0.322031 	-0.00806094 	0 0.323026 	-0.00922032 	0 0.295133 	-0.0100833 	0 0.325916 	-0.0128137 	-4.10529e-25 0.327219 	-0.0160696 	-2.10059e-24 0.327872 	-0.0192474 	-3.74442e-24 0.321305 	-0.0219528 	-5.34283e-24 0.267044 	-0.0217644 	-6.90137e-24 0.315178 	-0.0321366 	3.74517e-22 0.339881 	-0.0390336 	5.87044e-22 0.338555 	-0.0419836 	6.02355e-22 0.325423 	-0.0389693 	2.2746e-22 0.310189 	-0.0348359 	-2.25748e-22 0.315646 	-0.0377634 	-1.29771e-22 0.320765 	-0.0406523 	-3.30234e-23 0.320637 	-0.0404252 	-9.92871e-23 0.312165 	-0.0366432 	-2.94773e-22 0.303937 	-0.0328693 	-4.91238e-22 0.306377 	-0.0335967 	-7.51155e-22 0.308068 	-0.033557 	-8.4826e-22 0.309124 	-0.032801 	-7.91748e-22 0.31009 	-0.0319957 	-7.25544e-22 0.306619 	-0.0296786 	-4.03935e-22 0.308415 	-0.0296613 	-5.64899e-22 0.309471 	-0.029023 	-4.34998e-22 0.310593 	-0.0283931 	-3.06155e-22 0.311783 	-0.0277716 	-1.78361e-22 0.312729 	-0.0270744 	-3.4947e-23 0.312873 	-0.0270565 	-5.45346e-24 0.31297 	-0.0269996 	-4.87193e-24 0.313068 	-0.0269428 	-4.27939e-24 0.313165 	-0.0268861 	-3.67587e-24 0.313266 	-0.0268283 	-3.04972e-24 0.314265 	-0.0264046 	3.24793e-23 0.315293 	-0.0259845 	6.80831e-23 0.316349 	-0.0255681 	1.03761e-22 0.317433 	-0.0251552 	1.39512e-22 0.318268 	-0.0243493 	1.77459e-22 0.320483 	-0.0245673 	1.42454e-22 0.321483 	-0.0242309 	1.33091e-22 0.322505 	-0.0238972 	1.23874e-22 0.32355 	-0.0235662 	1.14802e-22 0.324088 	-0.0226509 	1.52064e-22 0.326659 	-0.0230659 	1.77366e-22 0.327964 	-0.0229715 	2.06462e-22 0.328919 	-0.0227331 	2.36691e-22 0.32965 	-0.0222844 	2.54963e-22 0.330126 	-0.0215939 	2.59445e-22 0.332374 	-0.0219149 	2.40808e-22 0.334324 	-0.0221284 	2.14199e-22 0.335225 	-0.0219581 	1.58951e-22 0.335693 	-0.0214637 	1.16635e-22 0.336141 	-0.0209405 	7.56135e-23 0.338139 	-0.0212143 	1.10996e-22 0.340131 	-0.0214871 	1.4637e-22 0.341182 	-0.0213953 	1.07234e-22 0.341592 	-0.0209953 	8.86224e-24 0.34202 	-0.0205978 	-8.95869e-23 0.34382 	-0.020848 	-4.99758e-23 0.345615 	-0.0210974 	-1.03442e-23 0.346899 	-0.0211064 	-1.28338e-23 0.347294 	-0.0208043 	-4.38162e-23 0.347702 	-0.0205038 	-7.48165e-23 0.349338 	-0.0207433 	-4.22115e-23 0.350907 	-0.0209504 	-1.69078e-23 0.352142 	-0.0209896 	-3.02168e-23 0.352767 	-0.0208426 	-6.16702e-23 0.353153 	-0.0206216 	-1.00409e-22 0.354649 	-0.0208599 	-6.26132e-23 0.355934 	-0.0210024 	-4.12378e-23 0.357054 	-0.0210697 	-3.27865e-23 0.357991 	-0.0210838 	-3.27481e-23 0.358351 	-0.0209294 	-5.93418e-23 0.359725 	-0.0211719 	-3.17128e-23 0.360758 	-0.0212727 	-1.33124e-23 0.361776 	-0.0213671 	4.67745e-24 0.362792 	-0.0214613 	2.26668e-23 0.363284 	-0.0214082 	4.05806e-23 0.364428 	-0.0216122 	8.00191e-23 0.365355 	-0.0217325 	7.33436e-23 0.366279 	-0.0218525 	6.66494e-23 0.367202 	-0.0219722 	5.99366e-23 0.367943 	-0.0220431 	3.83852e-23 0.368528 	-0.0221582 	4.48203e-23 0.369035 	-0.0222455 	3.65112e-23 0.369541 	-0.0223326 	2.81924e-23 0.370046 	-0.0224196 	1.9864e-23 0.370534 	-0.0225038 	1.17835e-23 0.370895 	-0.0225642 	5.80562e-24 0.371256 	-0.0226245 	-1.77338e-25 0.371616 	-0.0226848 	-6.16534e-24 0.371976 	-0.022745 	-1.21584e-23 0.372289 	-0.0227828 	-7.19437e-24 0.373213 	-0.0229911 	-2.89887e-24 0.374033 	-0.0231651 	-2.0638e-24 0.37485 	-0.0233387 	-1.22838e-24 0.375664 	-0.0235119 	-3.92635e-25 0.376315 	-0.0236143 	0 0.377393 	-0.023918 	0 0.378135 	-0.0241143 	0 0.378874 	-0.02431 	0 0.379609 	-0.0245053 	0 0.380067 	-0.0245902 	-6.72121e-24 0.381237 	-0.0249617 	-5.71267e-25 0.38195 	-0.0251934 	0 0.382614 	-0.0254102 	0 0.38318 	-0.0255917 	-2.36258e-24 0.383544 	-0.0256993 	-9.72381e-24 0.384613 	-0.0260764 	-3.57114e-24 0.385481 	-0.0263945 	1.16561e-25 0.386072 	-0.0266313 	3.94557e-25 0.386448 	-0.0267952 	5.0395e-24 0.386744 	-0.0269327 	1.12633e-23 0.387718 	-0.0273165 	4.92295e-23 0.388685 	-0.0276993 	8.71995e-23 0.389202 	-0.0279523 	8.83045e-23 0.389435 	-0.0281177 	5.32873e-23 0.389666 	-0.0282827 	1.8257e-23 0.390549 	-0.028674 	4.89708e-23 0.391425 	-0.0290642 	7.96906e-23 0.391973 	-0.0293614 	7.66754e-23 0.392143 	-0.0295524 	4.09355e-23 0.392308 	-0.0297431 	5.17781e-24 0.393104 	-0.0301422 	3.44588e-24 0.393873 	-0.0305351 	1.73577e-24 0.394381 	-0.0308569 	2.94098e-25 0.394568 	-0.0310935 	0 0.39467 	-0.031308 	0 0.39538 	-0.0317153 	0 0.395935 	-0.0320833 	-2.04773e-24 0.396363 	-0.0324192 	-5.77019e-24 0.396711 	-0.0327355 	-8.90793e-24 0.39675 	-0.0329721 	-9.55422e-24 0.397363 	-0.0333843 	-6.61432e-24 0.397718 	-0.0337343 	-4.70109e-24 0.398066 	-0.0340835 	-2.79708e-24 0.398407 	-0.0344317 	-9.02257e-25 0.398546 	-0.0347299 	-2.24128e-24 0.398889 	-0.0350509 	-1.63125e-24 0.399114 	-0.0353455 	1.52489e-24 0.399336 	-0.0356395 	4.68421e-24 0.399552 	-0.035933 	7.84669e-24 0.399747 	-0.0362016 	1.07503e-23 0.399811 	-0.0362751 	1.19367e-23 0.399874 	-0.0363486 	1.31241e-23 0.399938 	-0.036422 	1.43125e-23 0.400001 	-0.0364954 	1.55018e-23 0.400037 	-0.0365612 	1.26037e-23 0.400348 	-0.0369546 	1.06841e-23 0.400609 	-0.0373341 	7.52687e-24 0.400863 	-0.0377128 	4.36659e-24 0.40111 	-0.0380906 	1.20325e-24 0.40119 	-0.0384247 	-5.10184e-24 0.401648 	-0.0388906 	0 0.401834 	-0.0392809 	0 0.402013 	-0.0396703 	0 0.402144 	-0.0400485 	0 0.40205 	-0.0403714 	0 0.402494 	-0.0408611 	0 0.402766 	-0.0413049 	1.49144e-25 0.402872 	-0.0417042 	4.43433e-25 0.402783 	-0.0420585 	-4.95099e-24 0.402617 	-0.0423953 	-1.25397e-23 0.402977 	-0.0428882 	-4.15832e-24 0.403328 	-0.04338 	4.21096e-24 0.403359 	-0.0437912 	3.22618e-24 0.403127 	-0.044141 	-7.17759e-24 0.402888 	-0.0444905 	-1.76014e-23 0.403165 	-0.044986 	-1.19684e-23 0.403433 	-0.0454806 	-6.34744e-24 0.403459 	-0.0459246 	-3.65721e-25 0.403173 	-0.0462903 	0 0.402862 	-0.0466509 	0 0.403057 	-0.0471486 	0 0.403102 	-0.047617 	2.40267e-24 0.403026 	-0.0480617 	6.73647e-24 0.402922 	-0.0485003 	1.1076e-23 0.402539 	-0.0488706 	1.54328e-23 0.402597 	-0.0493593 	1.31954e-23 0.402449 	-0.049809 	1.44004e-23 0.402293 	-0.0502577 	1.56171e-23 0.402128 	-0.0507055 	1.68456e-23 0.401916 	-0.0511434 	1.85266e-23 0.40191 	-0.0512123 	1.80776e-23 0.401879 	-0.0512766 	1.76278e-23 0.401847 	-0.0513409 	1.71781e-23 0.401816 	-0.0514051 	1.67285e-23 0.401784 	-0.0514684 	1.62854e-23 0.401652 	-0.0518629 	1.2539e-23 0.401515 	-0.0522568 	8.78899e-24 0.401371 	-0.05265 	5.03526e-24 0.401222 	-0.0530426 	1.27785e-24 0.400922 	-0.0534032 	4.09332e-24 0.400915 	-0.0539246 	0 0.400682 	-0.0543857 	0 0.400441 	-0.0548459 	0 0.400128 	-0.0552918 	1.83579e-24 0.399616 	-0.0556974 	9.1564e-24 0.399586 	-0.0562325 	3.90628e-24 0.399479 	-0.0567483 	2.50976e-24 0.399161 	-0.0572094 	1.23573e-23 0.398591 	-0.0576201 	2.21559e-23 0.398001 	-0.0580288 	3.1951e-23 0.397889 	-0.0585598 	5.63033e-23 0.397766 	-0.0590898 	8.063e-23 0.397402 	-0.0595698 	7.85674e-23 0.396746 	-0.0599802 	4.99825e-23 0.39608 	-0.0603906 	2.13272e-23 0.395884 	-0.0609165 	7.33608e-24 0.395562 	-0.0614194 	-1.37561e-25 0.395095 	-0.0618957 	-6.53226e-26 0.394594 	-0.0623651 	0 0.393852 	-0.0627759 	0 0.393548 	-0.0632488 	-2.09997e-26 0.393049 	-0.0636867 	-1.28186e-25 0.392542 	-0.0641237 	-2.35502e-25 0.392026 	-0.0645599 	-3.42948e-25 0.391546 	-0.064959 	-4.41542e-25 0.391502 	-0.065002 	-4.48687e-25 0.391457 	-0.0650451 	-4.5583e-25 0.391413 	-0.0650882 	-4.62971e-25 0.391369 	-0.0651312 	-4.70111e-25 0.391307 	-0.0651705 	-1.65686e-24 0.390804 	-0.0656538 	-5.76806e-23 0.390266 	-0.0661291 	-1.08372e-22 0.38972 	-0.0666036 	-1.59189e-22 0.389164 	-0.0670772 	-2.10133e-22 0.388381 	-0.0675054 	-1.57476e-22 0.388022 	-0.0680426 	-2.07755e-22 0.387472 	-0.0685293 	-2.35874e-22 0.386847 	-0.0689972 	-2.55986e-22 0.386043 	-0.0694293 	-2.30119e-22 0.385144 	-0.0698445 	-1.81529e-22 0.384701 	-0.0703707 	-2.4653e-22 0.384248 	-0.070896 	-3.11436e-22 0.383541 	-0.0713636 	-2.81675e-22 0.382575 	-0.0717719 	-1.54773e-22 0.381597 	-0.0721806 	-2.75804e-23 0.381071 	-0.0726949 	1.49137e-22 0.380437 	-0.073189 	2.46905e-22 0.379638 	-0.0736515 	2.18659e-22 0.3788 	-0.0741056 	1.74656e-22 0.377743 	-0.0745065 	1.8317e-23 0.377249 	-0.0748958 	1.773e-24 0.376569 	-0.0752493 	2.70614e-23 0.375882 	-0.0756022 	5.23755e-23 0.375188 	-0.0759545 	7.77155e-23 0.374534 	-0.0762832 	1.01416e-22 0.37435 	-0.0763878 	1.06175e-22 0.374165 	-0.0764924 	1.1093e-22 0.37398 	-0.076597 	1.15683e-22 0.373794 	-0.0767015 	1.20433e-22 0.373558 	-0.0767945 	1.17594e-22 0.37278 	-0.077264 	5.02975e-23 0.371921 	-0.0777121 	-2.60981e-23 0.371053 	-0.0781594 	-1.02505e-22 0.370152 	-0.0786009 	-1.6542e-22 0.36901 	-0.0789909 	-9.12279e-23 0.368309 	-0.0794898 	-4.16679e-23 0.367535 	-0.0799701 	-3.05464e-24 0.366585 	-0.080403 	6.79169e-24 0.365378 	-0.0807793 	2.40234e-23 0.364156 	-0.081156 	4.16279e-23 0.363372 	-0.0816372 	6.17278e-23 0.362577 	-0.0821175 	8.21473e-23 0.361531 	-0.082543 	1.5442e-23 0.360302 	-0.0829202 	-5.1121e-23 0.359 	-0.0832826 	-1.16555e-22 0.358133 	-0.0837454 	-6.88926e-22 0.357021 	-0.0841547 	-4.59947e-22 0.355883 	-0.0845598 	-1.78838e-22 0.354733 	-0.0849639 	1.03783e-22 0.353548 	-0.0853636 	4.33865e-22 0.3535 	-0.0853859 	4.6847e-22 0.35344 	-0.0854055 	4.71733e-22 0.35338 	-0.0854249 	4.74049e-22 0.35332 	-0.0854444 	4.76362e-22 0.35326 	-0.0854638 	4.78664e-22 0.352218 	-0.085843 	5.37459e-22 0.351166 	-0.0862215 	5.95509e-22 0.350104 	-0.0865993 	6.5281e-22 0.349032 	-0.0869764 	7.09354e-22 0.347725 	-0.0872948 	6.27216e-22 0.346763 	-0.087738 	4.61702e-22 0.34569 	-0.0881505 	3.13996e-22 0.344495 	-0.0885289 	1.86206e-22 0.34307 	-0.0888472 	4.40203e-22 0.341606 	-0.0891609 	7.29217e-22 0.340561 	-0.0895813 	2.23328e-21 0.339504 	-0.0900007 	3.73605e-21 0.338209 	-0.0903579 	3.48863e-21 0.336741 	-0.0906669 	2.2184e-21 0.335198 	-0.0909601 	5.97695e-22 0.33415 	-0.0913291 	3.84375e-22 0.332886 	-0.091641 	2.71046e-22 0.331595 	-0.0919478 	1.65577e-22 0.330293 	-0.0922538 	6.0365e-23 0.329072 	-0.0925376 	-3.72644e-23 0.32896 	-0.0925665 	-5.15507e-23 0.328849 	-0.0925955 	-6.58378e-23 0.328738 	-0.0926244 	-8.01258e-23 0.328626 	-0.0926531 	-9.40168e-23 0.328495 	-0.0926758 	-9.46585e-23 0.327189 	-0.0930068 	2.99738e-22 0.325841 	-0.0933272 	5.82319e-22 0.324482 	-0.0936468 	8.66982e-22 0.323082 	-0.0939558 	9.8185e-22 0.321468 	-0.0942004 	-5.72235e-23 0.320247 	-0.0945604 	-3.74337e-23 0.31901 	-0.0949185 	-1.91087e-23 0.317526 	-0.0951981 	-7.44378e-23 0.315855 	-0.0954172 	-8.67813e-24 0.314161 	-0.0956367 	5.80943e-23 0.312858 	-0.0959695 	-1.07659e-21 0.311472 	-0.0962773 	-1.71594e-21 0.309921 	-0.096532 	-1.28126e-21 0.308356 	-0.0967853 	-8.39631e-22 0.306582 	-0.0969793 	2.19098e-22 0.305927 	-0.0971236 	-1.49191e-22 0.305181 	-0.0972371 	-8.50302e-23 0.304416 	-0.0973447 	5.95387e-23 0.303647 	-0.097452 	2.04857e-22 0.302903 	-0.0975554 	3.45905e-22 0.302095 	-0.097684 	4.50949e-22 0.301284 	-0.0978124 	5.56701e-22 0.300469 	-0.0979404 	6.63166e-22 0.29964 	-0.0980637 	7.11661e-22 0.298711 	-0.0981454 	2.20343e-22 0.297319 	-0.0984272 	4.07181e-25 0.295749 	-0.0986459 	-6.76339e-24 0.294156 	-0.09886 	-1.53748e-24 0.292414 	-0.0990112 	0 0.290587 	-0.0991366 	0 0.289114 	-0.0993878 	0 0.287626 	-0.0996379 	0 0.285957 	-0.0998101 	-2.461e-22 0.284111 	-0.0999182 	-6.3544e-22 0.282204 	-0.100014 	-1.05246e-21 0.280978 	-0.100188 	-3.28384e-21 0.279621 	-0.100305 	-3.18147e-21 0.278223 	-0.100406 	-2.48319e-21 0.276817 	-0.100507 	-1.78096e-21 0.27548 	-0.100602 	-1.11401e-21 0.275107 	-0.100633 	-9.82052e-22 0.274732 	-0.100665 	-8.49886e-22 0.274357 	-0.100697 	-7.17512e-22 0.273976 	-0.100726 	-6.45149e-22 0.273565 	-0.100735 	-9.08831e-22 0.271932 	-0.100885 	3.9034e-22 0.270212 	-0.101001 	1.34575e-21 0.268479 	-0.101116 	2.30432e-21 0.266665 	-0.101186 	2.21085e-21 0.26473 	-0.101197 	6.75546e-22 0.263096 	-0.10135 	3.50169e-22 0.261447 	-0.101501 	2.45524e-23 0.259649 	-0.10157 	-2.25627e-22 0.257667 	-0.101549 	-3.22031e-22 0.25565 	-0.101527 	-4.20426e-22 0.254105 	-0.101634 	-5.58099e-22 0.252442 	-0.101669 	-2.56457e-22 0.250732 	-0.10168 	1.93388e-22 0.249008 	-0.10169 	6.42908e-22 0.247379 	-0.101698 	1.06418e-21 0.247174 	-0.101701 	1.11676e-21 0.246968 	-0.101704 	1.16934e-21 0.246763 	-0.101707 	1.2219e-21 0.246555 	-0.101708 	1.26713e-21 0.246336 	-0.101698 	1.28371e-21 0.244543 	-0.101717 	3.63448e-22 0.242702 	-0.101716 	-8.86237e-23 0.240845 	-0.101714 	-5.47687e-22 0.238936 	-0.101669 	7.98573e-24 0.236921 	-0.101545 	2.44883e-21 0.235141 	-0.101582 	3.40888e-21 0.233344 	-0.101617 	4.36562e-21 0.231433 	-0.10156 	3.87741e-21 0.229374 	-0.101403 	1.92445e-21 0.227275 	-0.101243 	-5.24191e-23 0.225716 	-0.101244 	-5.05266e-22 0.224082 	-0.101174 	-9.58935e-22 0.222409 	-0.101071 	-1.4135e-21 0.220725 	-0.100968 	-1.86905e-21 0.219125 	-0.100869 	-2.29955e-21 0.218789 	-0.100851 	-2.42202e-21 0.218453 	-0.100832 	-2.54456e-21 0.218117 	-0.100814 	-2.66717e-21 0.217786 	-0.100791 	-2.69915e-21 0.217474 	-0.100753 	-2.46399e-21 0.21555 	-0.100649 	-3.13574e-21 0.213609 	-0.100514 	-3.32126e-21 0.211652 	-0.100377 	-3.51035e-21 0.209748 	-0.100185 	-2.99385e-21 0.207876 	-0.0999301 	-1.72284e-21 0.205879 	-0.0998242 	-5.50885e-21 0.203865 	-0.0997163 	-9.28973e-21 0.201944 	-0.0995151 	-9.37902e-21 0.200031 	-0.0992382 	-6.30549e-21 0.198072 	-0.0989455 	-2.75352e-21 0.196778 	-0.0988564 	-4.19239e-21 0.195531 	-0.0987207 	-4.31647e-21 0.194309 	-0.0985583 	-3.69382e-21 0.19308 	-0.0983952 	-3.0704e-21 0.191897 	-0.0982382 	-2.47249e-21 0.191104 	-0.0981378 	-2.09125e-21 0.190308 	-0.0980371 	-1.7097e-21 0.189509 	-0.097936 	-1.32784e-21 0.188755 	-0.0978195 	-1.07164e-21 0.188055 	-0.0976824 	-9.75237e-22 0.185907 	-0.0974339 	-7.4582e-22 0.183777 	-0.097153 	-3.98436e-22 0.181649 	-0.0968541 	0 0.179775 	-0.096463 	0 0.177852 	-0.0960631 	0 0.17568 	-0.0957826 	0 0.173619 	-0.0954556 	0 0.171677 	-0.0950797 	0 0.16972 	-0.0947017 	0 0.167877 	-0.0943467 	0 0.167791 	-0.0943307 	0 0.167705 	-0.0943146 	0 0.167618 	-0.0942985 	0 0.167537 	-0.0942802 	0 0.167461 	-0.0942602 	0 0.165415 	-0.0938582 	-1.55924e-22 0.163357 	-0.0934468 	-3.43261e-22 0.161281 	-0.0930331 	-5.28891e-22 0.159331 	-0.0925567 	-7.12591e-22 0.157413 	-0.0920337 	-8.98302e-22 0.155262 	-0.091625 	-3.8299e-22 0.153149 	-0.0911886 	6.12211e-25 0.151186 	-0.0906783 	2.99311e-24 0.149205 	-0.0901654 	5.37528e-24 0.147171 	-0.0896282 	-8.82953e-23 0.14705 	-0.0896038 	-1.86626e-22 0.146933 	-0.0895778 	-2.2764e-22 0.146824 	-0.0895482 	-1.48343e-22 0.146715 	-0.0895185 	-6.9021e-23 0.146606 	-0.089489 	1.00303e-23 0.144699 	-0.0889827 	1.40376e-21 0.142776 	-0.0884741 	2.80519e-21 0.140837 	-0.0879632 	4.21455e-21 0.139037 	-0.0873918 	3.15236e-21 0.137261 	-0.086779 	8.95195e-22 0.135205 	-0.0862542 	3.6331e-21 0.133191 	-0.0857027 	5.01039e-21 0.13133 	-0.085084 	2.69655e-21 0.129454 	-0.0844628 	3.76321e-22 0.127674 	-0.083876 	-1.81275e-21 0.127583 	-0.0838465 	-1.92404e-21 0.127492 	-0.083817 	-2.03535e-21 0.1274 	-0.0837875 	-2.14668e-21 0.127318 	-0.083755 	-2.06753e-21 0.127238 	-0.0837216 	-1.93335e-21 0.125264 	-0.0830677 	-1.31348e-21 0.123283 	-0.0824029 	-6.88791e-22 0.121284 	-0.0817351 	-6.38897e-23 0.119483 	-0.0809916 	9.85389e-24 0.117659 	-0.0802171 	1.67501e-24 0.116207 	-0.0797436 	-1.07389e-23 0.114773 	-0.0792588 	-1.7131e-22 0.113474 	-0.0787228 	-1.11213e-21 0.112169 	-0.0781856 	-2.05321e-21 0.110909 	-0.0776687 	-2.95646e-21 0.11033 	-0.0774348 	-3.6694e-21 0.109749 	-0.0772006 	-4.38284e-21 0.109166 	-0.0769662 	-5.0968e-21 0.10865 	-0.0767108 	-4.2785e-21 0.108139 	-0.0764505 	-3.2302e-21 0.106216 	-0.0756861 	-5.40344e-21 0.104275 	-0.0749182 	-7.56556e-21 0.102451 	-0.0740973 	-6.7281e-21 0.100757 	-0.0732245 	-2.9268e-21 0.0990091 	-0.0723276 	9.64938e-22 0.0983959 	-0.0720796 	9.39112e-22 0.0977852 	-0.07183 	9.13381e-22 0.0972447 	-0.0715579 	8.86696e-22 0.0967031 	-0.0712855 	8.60111e-22 0.0961692 	-0.0710174 	8.34059e-22 0.094946 	-0.0704097 	5.59878e-22 0.0937165 	-0.0698008 	2.85647e-22 0.0924804 	-0.0691906 	1.13648e-23 0.0914034 	-0.0685334 	-2.64163e-22 0.0903145 	-0.0678639 	-5.43803e-22 0.0888053 	-0.0671277 	-4.75523e-22 0.0872878 	-0.0663886 	-4.08192e-22 0.0859618 	-0.0655913 	-3.42024e-22 0.0846301 	-0.0647928 	-2.76373e-22 0.0833374 	-0.0640196 	-2.13437e-22 0.0830508 	-0.0638499 	-1.41873e-22 0.0827639 	-0.0636802 	-7.03067e-23 0.0824774 	-0.0