# vtk DataFile Version 2.0
track0
ASCII
DATASET POLYDATA
POINTS 11000 float
-0.0205 0.001 1e-05
-0.02052 0.00100031 1e-05
-0.02054 0.00100057 1e-05
-0.02056 0.00100076 1e-05
-0.02058 0.00100088 1e-05
-0.0206 0.00100095 1e-05
-0.0205 0.00367778 1e-05
-0.02052 0.00367794 1e-05
-0.02054 0.00367807 1e-05
-0.02056 0.00367817 1e-05
-0.02058 0.00367824 1e-05
-0.0206 0.00367827 1e-05
-0.0205 0.00635556 1e-05
-0.02052 0.00635561 1e-05
-0.02054 0.00635565 1e-05
-0.02056 0.00635568 1e-05
-0.02058 0.0063557 1e-05
-0.0206 0.00635571 1e-05
-0.0205 0.00903333 1e-05
-0.02052 0.00903336 1e-05
-0.02054 0.00903338 1e-05
-0.02056 0.00903339 1e-05
-0.02058 0.0090334 1e-05
-0.0206 0.00903341 1e-05
-0.0205 0.0117111 1e-05
-0.02052 0.0117111 1e-05
-0.02054 0.0117111 1e-05
-0.02056 0.0117111 1e-05
-0.02058 0.0117111 1e-05
-0.0206 0.0117111 1e-05
-0.0205 0.0143889 1e-05
-0.02052 0.0143889 1e-05
-0.02054 0.0143889 1e-05
-0.02056 0.0143889 1e-05
-0.02058 0.0143889 1e-05
-0.0206 0.0143889 1e-05
-0.0205 0.0170667 1e-05
-0.02052 0.0170666 1e-05
-0.02054 0.0170666 1e-05
-0.02056 0.0170666 1e-05
-0.02058 0.0170666 1e-05
-0.0206 0.0170666 1e-05
-0.0205 0.0197444 1e-05
-0.02052 0.0197444 1e-05
-0.02054 0.0197443 1e-05
-0.02056 0.0197442 1e-05
-0.02058 0.0197442 1e-05
-0.0206 0.0197442 1e-05
-0.0205 0.0224222 1e-05
-0.02052 0.022422 1e-05
-0.02054 0.0224219 1e-05
-0.02056 0.0224217 1e-05
-0.02058 0.0224217 1e-05
-0.0206 0.0224216 1e-05
-0.0205 0.0251 1e-05
-0.02052 0.025098 1e-05
-0.02054 0.0250964 1e-05
-0.0205601 0.0250952 1e-05
-0.0205802 0.0250944 1e-05
-0.0206 0.025094 1e-05
-0.0205 0.001 1e-05
-0.0202034 0.000995343 1e-05
-0.0199071 0.000981598 1e-05
-0.0196114 0.000958866 1e-05
-0.0193165 0.000926875 1e-05
-0.0190172 0.000887565 1e-05
-0.0187132 0.000848164 1e-05
-0.0184092 0.00080967 1e-05
-0.0181051 0.000772063 1e-05
-0.0178006 0.000737274 1e-05
-0.0174976 0.000705372 1e-05
-0.017404 0.00069641 1e-05
-0.0173104 0.000687741 1e-05
-0.0172168 0.000679315 1e-05
-0.0171232 0.000671103 1e-05
-0.0169999 0.000660565 1e-05
-0.0168077 0.000644692 1e-05
-0.0166154 0.00062972 1e-05
-0.016423 0.000615609 1e-05
-0.0162305 0.000602316 1e-05
-0.0160387 0.000589747 1e-05
-0.0157586 0.000571877 1e-05
-0.0154783 0.000555549 1e-05
-0.0151981 0.00054051 1e-05
-0.0149177 0.00052659 1e-05
-0.0146381 0.000513284 1e-05
-0.0143692 0.000500917 1e-05
-0.0141002 0.000489615 1e-05
-0.0138312 0.000479299 1e-05
-0.0135621 0.000469579 1e-05
-0.0132934 0.000460158 1e-05
-0.0130353 0.000451379 1e-05
-0.0127771 0.000443379 1e-05
-0.0125188 0.000436045 1e-05
-0.0122606 0.00042904 1e-05
-0.0120025 0.000422257 1e-05
-0.0117547 0.0004159 1e-05
-0.0115068 0.000410116 1e-05
-0.0112589 0.000404686 1e-05
-0.011011 0.000399488 1e-05
-0.0107632 0.000394492 1e-05
-0.0105252 0.000389778 1e-05
-0.0102873 0.000385493 1e-05
-0.0100493 0.000381382 1e-05
-0.0098113 0.000377435 1e-05
-0.00957337 0.00037365 1e-05
-0.00934491 0.00037007 1e-05
-0.00911645 0.000366769 1e-05
-0.00888798 0.000363587 1e-05
-0.00865952 0.000360521 1e-05
-0.00843108 0.000357571 1e-05
-0.00821175 0.000354786 1e-05
-0.00799242 0.00035218 1e-05
-0.00777309 0.000349659 1e-05
-0.00755375 0.000347221 1e-05
-0.00733443 0.000344864 1e-05
-0.00712387 0.000342644 1e-05
-0.0069133 0.000340534 1e-05
-0.00670273 0.000338483 1e-05
-0.00649216 0.00033649 1e-05
-0.0062816 0.000334553 1e-05
-0.00607944 0.000332727 1e-05
-0.00587729 0.000330965 1e-05
-0.00567514 0.000329239 1e-05
-0.00547298 0.000327548 1e-05
-0.00527083 0.000325892 1e-05
-0.00509595 0.000324482 1e-05
-0.00492108 0.000323092 1e-05
-0.0047462 0.000321712 1e-05
-0.00457133 0.000320343 1e-05
-0.00437797 0.000318841 1e-05
-0.00436247 0.000318721 1e-05
-0.00434696 0.000318602 1e-05
-0.00433146 0.000318482 1e-05
-0.00431595 0.000318363 1e-05
-0.00430044 0.000318244 1e-05
-0.00411412 0.000316811 1e-05
-0.0039278 0.000315364 1e-05
-0.00374147 0.000313899 1e-05
-0.00355515 0.000312418 1e-05
-0.00336883 0.00031092 1e-05
-0.00318995 0.000309442 1e-05
-0.00301107 0.000307922 1e-05
-0.00283219 0.000306328 1e-05
-0.00265331 0.000304662 1e-05
-0.00247443 0.000302923 1e-05
-0.0023027 0.000301133 1e-05
-0.00213097 0.000299238 1e-05
-0.00195924 0.000297152 1e-05
-0.00178751 0.000294877 1e-05
-0.00161577 0.000292414 1e-05
-0.0014509 0.000289764 1e-05
-0.00128604 0.000286827 1e-05
-0.00112118 0.000283289 1e-05
-0.000956341 0.000279163 1e-05
-0.000791418 0.000274456 1e-05
-0.000633135 0.000269048 1e-05
-0.000474881 0.000262826 1e-05
-0.000316696 0.000255058 1e-05
-0.000158592 0.000245776 1e-05
0 0.000234941 1e-05
0.000105677 0.000226328 1e-05
0.000211158 0.000215573 1e-05
0.000316494 0.000203475 1e-05
0.000421716 0.000190427 1e-05
0.000528387 0.000177653 1e-05
0.000634886 0.000165693 1e-05
0.000741296 0.000152962 1e-05
0.000847614 0.000139488 1e-05
0.000953941 0.000126082 1e-05
0.00106088 0.000113529 1e-05
0.00116821 0.000101922 1e-05
0.00127552 9.01549e-05 1e-05
0.00138284 7.8465e-05 1e-05
0.00149019 6.70741e-05 1e-05
0.00159752 5.59996e-05 1e-05
0.00170568 4.55303e-05 1e-05
0.00181385 3.51274e-05 1e-05
0.00192204 2.49809e-05 1e-05
0.00203026 1.50883e-05 1e-05
0.00213833 5.46208e-06 1e-05
0.00215094 4.36967e-06 1e-05
0.00216356 3.27847e-06 1e-05
0.00217618 2.18988e-06 1e-05
0.0021888 1.1039e-06 1e-05
0.00220166 0 1e-05
0.00229799 -8.25028e-06 1e-05
0.00239434 -1.63456e-05 1e-05
0.0024907 -2.42871e-05 1e-05
0.00258708 -3.20763e-05 1e-05
0.00268334 -3.97044e-05 1e-05
0.00279319 -4.81085e-05 1e-05
0.00290304 -5.65292e-05 1e-05
0.0030129 -6.48095e-05 1e-05
0.00312277 -7.29507e-05 1e-05
0.00323259 -8.09498e-05 1e-05
0.00334329 -8.86871e-05 1e-05
0.00345399 -9.65036e-05 1e-05
0.00356469 -0.000104258 1e-05
0.0036754 -0.000111909 1e-05
0.00378611 -0.000119393 1e-05
0.00389767 -0.00012669 1e-05
0.00400923 -0.000134046 1e-05
0.00412079 -0.00014143 1e-05
0.00423236 -0.000148738 1e-05
0.00434393 -0.000155872 1e-05
0.00445636 -0.000162876 1e-05
0.00456879 -0.00016993 1e-05
0.00468122 -0.000177032 1e-05
0.00479365 -0.000184082 1e-05
0.00490609 -0.000190993 1e-05
0.0050194 -0.000197817 1e-05
0.0051327 -0.000204687 1e-05
0.005246 -0.000211604 1e-05
0.0053593 -0.000218497 1e-05
0.00547262 -0.000225285 1e-05
0.00558681 -0.000232019 1e-05
0.00570099 -0.000238799 1e-05
0.00581517 -0.000245616 1e-05
0.00592936 -0.000252422 1e-05
0.00604356 -0.000259169 1e-05
0.00615863 -0.000265889 1e-05
0.0062737 -0.000272657 1e-05
0.00638877 -0.000279447 1e-05
0.00650384 -0.000286237 1e-05
0.00661893 -0.000293015 1e-05
0.0067349 -0.000299789 1e-05
0.00685087 -0.000306614 1e-05
0.00696683 -0.000313452 1e-05
0.0070828 -0.000320301 1e-05
0.00719878 -0.000327162 1e-05
0.00731565 -0.000334049 1e-05
0.00743252 -0.00034098 1e-05
0.00754939 -0.000347932 1e-05
0.00766625 -0.000354904 1e-05
0.00778313 -0.000361898 1e-05
0.00785398 -0.000366143 1e-05
0.00792483 -0.000370402 1e-05
0.00799568 -0.000374673 1e-05
0.00806653 -0.000378955 1e-05
0.00813519 -0.000383115 1e-05
0.00818256 -0.000385991 1e-05
0.00822993 -0.000388873 1e-05
0.0082773 -0.00039176 1e-05
0.00832466 -0.000394651 1e-05
0.00837203 -0.000397548 1e-05
0.00849073 -0.000404812 1e-05
0.00860942 -0.000412123 1e-05
0.00872811 -0.000419474 1e-05
0.0088468 -0.000426864 1e-05
0.00896551 -0.000434294 1e-05
0.00908513 -0.0004418 1e-05
0.00920474 -0.000449381 1e-05
0.00932435 -0.000457009 1e-05
0.00944396 -0.000464683 1e-05
0.0095636 -0.000472406 1e-05
0.00968415 -0.000480206 1e-05
0.00980469 -0.000488098 1e-05
0.00992523 -0.000496049 1e-05
0.0100458 -0.000504054 1e-05
0.0101663 -0.000512107 1e-05
0.0102878 -0.000520247 1e-05
0.0104093 -0.000528483 1e-05
0.0105308 -0.000536801 1e-05
0.0106523 -0.00054518 1e-05
0.0107738 -0.000553606 1e-05
0.0108962 -0.000562132 1e-05
0.0110186 -0.000570757 1e-05
0.011141 -0.000579481 1e-05
0.0112635 -0.000588272 1e-05
0.0113859 -0.000597115 1e-05
0.0115093 -0.00060607 1e-05
0.0116327 -0.000615128 1e-05
0.011756 -0.000624289 1e-05
0.0118794 -0.000633529 1e-05
0.0120028 -0.000642831 1e-05
0.0121272 -0.000652258 1e-05
0.0122515 -0.000661791 1e-05
0.0123758 -0.00067143 1e-05
0.0125001 -0.000681156 1e-05
0.0126245 -0.000690959 1e-05
0.0127498 -0.000700899 1e-05
0.0128751 -0.00071095 1e-05
0.0130004 -0.000721102 1e-05
0.0131257 -0.000731349 1e-05
0.0132511 -0.000741694 1e-05
0.0133774 -0.000752188 1e-05
0.0135036 -0.000762797 1e-05
0.0136299 -0.000773507 1e-05
0.0137562 -0.000784317 1e-05
0.0138825 -0.000795236 1e-05
0.0139859 -0.000804246 1e-05
0.0140893 -0.000813331 1e-05
0.0141927 -0.000822487 1e-05
0.014296 -0.000831713 1e-05
0.0143909 -0.00084024 1e-05
0.0144164 -0.000842558 1e-05
0.014442 -0.000844879 1e-05
0.0144676 -0.000847205 1e-05
0.0144932 -0.000849536 1e-05
0.0145188 -0.000851871 1e-05
0.0146471 -0.000863593 1e-05
0.0147753 -0.00087543 1e-05
0.0149035 -0.00088738 1e-05
0.0150318 -0.000899443 1e-05
0.0151601 -0.000911629 1e-05
0.0152893 -0.000924008 1e-05
0.0154186 -0.000936522 1e-05
0.0155478 -0.000949154 1e-05
0.015677 -0.000961905 1e-05
0.0158063 -0.000974784 1e-05
0.0159366 -0.000987863 1e-05
0.0160668 -0.00100109 1e-05
0.0161971 -0.00101444 1e-05
0.0163273 -0.00102792 1e-05
0.0164576 -0.00104153 1e-05
0.0165889 -0.00105535 1e-05
0.0167201 -0.00106932 1e-05
0.0168514 -0.00108344 1e-05
0.0169826 -0.00109768 1e-05
0.0171139 -0.00111207 1e-05
0.0172462 -0.00112668 1e-05
0.0173785 -0.00114143 1e-05
0.0175108 -0.00115634 1e-05
0.017643 -0.0011714 1e-05
0.0177754 -0.0011866 1e-05
0.0179087 -0.00120203 1e-05
0.018042 -0.00121763 1e-05
0.0181753 -0.00123337 1e-05
0.0183086 -0.00124926 1e-05
0.018442 -0.00126532 1e-05
0.0185763 -0.00128164 1e-05
0.0187107 -0.00129811 1e-05
0.018845 -0.00131473 1e-05
0.0189793 -0.00133151 1e-05
0.0191137 -0.00134846 1e-05
0.0191329 -0.0013509 1e-05
0.0191521 -0.00135335 1e-05
0.0191713 -0.0013558 1e-05
0.0191905 -0.00135825 1e-05
0.0192094 -0.00136067 1e-05
0.0193257 -0.00137557 1e-05
0.0194419 -0.00139057 1e-05
0.0195582 -0.0014057 1e-05
0.0196744 -0.00142095 1e-05
0.0197907 -0.00143633 1e-05
0.0199272 -0.0014545 1e-05
0.0200636 -0.00147285 1e-05
0.0202 -0.00149137 1e-05
0.0203364 -0.00151005 1e-05
[...]
POINT_DATA 11000
 FIELD attributes 2
p 1 11000 float
-0.132079 -0.131972 -0.131862 -0.131748 -0.131631 -0.131511
-0.0823761 -0.0823706 -0.0823661 -0.0823624 -0.0823598 -0.082358
-0.0193429 -0.0192697 -0.0191967 -0.019124 -0.0190515 -0.0189923
0.0167252 0.0167027 0.0166802 0.0166577 0.0166351 0.0166124
0.0317924 0.0317318 0.0316713 0.0316107 0.0315501 0.0314895
0.0289694 0.0289157 0.028862 0.0288083 0.0287546 0.0287009
0.0110682 0.0110294 0.0109905 0.0109515 0.0109124 0.0108732
-0.0311313 -0.0311503 -0.0311698 -0.0311896 -0.0312098 -0.0312304
-0.0992775 -0.0992645 -0.0992527 -0.099242 -0.0992324 -0.099224
-0.0742189 -0.0746307 -0.0750206 -0.0753885 -0.0757341 -0.0760528
-0.132079 -0.126084 -0.120298 -0.115184 -0.107392 -0.0914559 -0.0770696 -0.0627118 -0.0549797 -0.0474873 -0.0415968 -0.0397908 -0.0382069 -0.0367602 -0.0353151 -0.0334143 -0.0301513 -0.0269123 -0.023696 -0.0206973 -0.0183775 -0.0144391 -0.0108323 -0.00745488 -0.00488571 -0.00252622 0.000194607 0.00290432 0.00502802 0.00658735 0.00814199 0.0100227 0.011814 0.0131688 0.0142915 0.0153043 0.0166123 0.0176728 0.0185787 0.019431 0.0200626 0.0209611 0.0215567 0.0221407 0.0227243 0.0231193 0.0236626 0.0240132 0.0243636 0.0247136 0.0249545 0.0252452 0.0254217 0.0255979 0.025774 0.025888 0.0259954 0.0260366 0.0260776 0.0261186 0.0261266 0.0260912 0.0260202 0.0259491 0.025878 0.0257932 0.0256504 0.0254926 0.0253347 0.0251768 0.0250022 0.0249884 0.0249746 0.0249608 0.024947 0.0249318 0.0246468 0.0243603 0.0240739 0.0237876 0.0234818 0.0230592 0.0226129 0.0221669 0.0217212 0.0212273 0.020578 0.0198621 0.0191473 0.0184335 0.0176024 0.0164834 0.0151592 0.0138406 0.0125274 0.0107831 0.00874558 0.00674818 0.00474896 0.00248518 -0.00166695 -0.00393216 -0.00550901 -0.0062472 -0.00493161 -0.00319774 -0.000884211 0.00140407 0.00307823 0.00396573 0.00488027 0.006687 0.00789018 0.00852971 0.00913705 0.0087152 0.00900077 0.00910041 0.00920576 0.00931676 0.00939006 0.00939896 0.00940387 0.00940882 0.00941381 0.00941893 0.0094765 0.00953602 0.0095975 0.00966091 0.00973432 0.00987823 0.00990302 0.00992914 0.00995656 0.00994674 0.0100621 0.0100637 0.0100335 0.00999066 0.0099337 0.00998271 0.0100076 0.00994666 0.00986447 0.00978127 0.00978632 0.00979103 0.00972975 0.00962859 0.00952821 0.00950125 0.00947402 0.00941959 0.00930717 0.00919526 0.00914535 0.00909243 0.00902467 0.00891865 0.0087975 0.00872973 0.00865281 0.00856876 0.00847424 0.00834663 0.00826568 0.00817103 0.00807572 0.00798037 0.00785768 0.00776346 0.00766085 0.00755817 0.00745541 0.007344 0.00728238 0.00721787 0.00715332 0.00708873 0.0070261 0.00698381 0.00694151 0.00689919 0.00685686 0.00681272 0.00670943 0.00660182 0.0064941 0.00638627 0.00627235 0.00617712 0.00606904 0.00596083 0.00585249 0.00573431 0.00564519 0.00554022 0.00543349 0.00532353 0.00520691 0.00511871 0.00502405 0.00492059 0.00481047 0.00469785 0.00461236 0.00452661 0.00442767 0.00432044 0.00421304 0.00413166 0.00405 0.00395953 0.00385895 0.00375818 0.0036824 0.00360588 0.00352285 0.0034321 0.0033392 0.00327046 0.00319808 0.0031227 0.00304553 0.00296148 0.00290057 0.00283425 0.00276768 0.00270086 0.00262994 0.00258638 0.00254057 0.00249459 0.00244843 0.00240593 0.00239458 0.00238322 0.00237185 0.00236047 0.00234857 0.00230465 0.00225971 0.00221451 0.00216904 0.00212055 0.00209149 0.00205812 0.00202448 0.00198996 0.00195196 0.00193572 0.00191689 0.00189557 0.00187161 0.00184645 0.00184267 0.00183855 0.00183033 0.00181897 0.00180731 0.00181665 0.00182563 0.00183228 0.00183521 0.00183764 0.0018607 0.00188249 0.0019032 0.00192334 0.00194036 0.00197742 0.00201321 0.00204865 0.00208371 0.00211809 0.00212543 0.0021327 0.00213996 0.00214721 0.00215435 0.00219834 0.00224205 0.00228549 0.00232865 0.0023714 0.00244009 0.00250655 0.00257262 0.00263834 0.00270385 0.00278855 0.00287224 0.00295386 0.00303555 0.00311702 0.00321735 0.00331724 0.00341684 0.00351459 0.00361212 0.00372816 0.00384433 0.00396071 0.00407645 0.00419011 0.00431243 0.00443548 0.00455813 0.00468039 0.00479208 0.00480393 0.00481577 0.00482761 0.00483944 0.00485145 0.00500106 0.00515002 0.00529851 0.00544653 0.00559683 0.00576398 0.00592927 0.00609357 0.00625943 0.00642623 0.00660913 0.00679152 0.00697411 0.00715674 0.00733939 0.00753776 0.0077369 0.0079376 0.00813752 0.00833563 0.00850298 0.00867247 0.00884162 0.00901045 0.00916788 0.00921697 0.00926603 0.00931506 0.00936406 0.00941409 0.00964663 0.00987807 0.010109 0.0103398 0.0105755 0.0108238 0.011071 0.0113162 0.0115659 0.0118159 0.0120783 0.0123401 0.0126061 0.01287 0.0131338 0.0134096 0.0136894 0.0139689 0.0142478 0.0145271 0.0145415 0.0145563 0.014571 0.0145857 0.0146004 0.0148796 0.0151582 0.0154363 0.0157139 0.0159985 0.0163068 0.0166134 0.0169182 0.0172285 0.0175402 0.0178601 0.0181793 0.0185038 0.0188262 0.0191488 0.0194561 0.0197679 0.0200795 0.0203905 0.0206793 0.0207077 0.0207361 0.0207645 0.0207929 0.020822 0.0211697 0.0215166 0.0218627 0.0222093 0.0225645 0.0229231 0.023281 0.0236377 0.0239998 0.0243634 0.0247305 0.0250992 0.025472 0.025844 0.0262152 0.0263923 0.0265718 0.0267516 0.0269313 0.0271046 0.0273074 0.0275099 0.0277123 0.0279149 0.0281228 0.0285138 0.0289024 0.0292902 0.0296835 0.0300817 0.0304785 0.0308746 0.0312769 0.0316777 0.0320805 0.0323971 0.0327179 0.0330393 0.0333602 0.0336628 0.0337535 0.0338442 0.0339348 0.0340257 0.0341189 0.0345341 0.0349479 0.035361 0.0357775 0.0362027 0.0366216 0.0370396 0.0374621 0.0378855 0.0383124 0.0386913 0.0390748 0.0394594 0.0398434 0.0402028 0.0402512 0.0402996 0.040348 0.0403967 0.0404464 0.0408786 0.0413098 0.0417402 0.0421735 0.0426176 0.0430505 0.0434826 0.0439191 0.0443575 0.0448005 0.0451621 0.0455278 0.045895 0.0462616 0.0466067 0.046684 0.0467612 0.0468385 0.0469164 0.0469967 0.0474372 0.0478778 0.0483174 0.0487635 0.0492228 0.04966 0.0500962 0.0505422 0.0509909 0.0514461 0.0517168 0.051992 0.0522694 0.0525466 0.0528117 0.052983 0.0531541 0.0533251 0.0534981 0.0536749 0.0541172 0.0545591 0.0550005 0.0554524 0.0559118 0.0563382 0.0567685 0.0572029 0.0576364 0.0580405 0.0580594 0.0580783 0.0580972 0.0581163 0.0581357 0.0585811 0.0590257 0.0594693 0.0599173 0.0603766 0.0608155 0.0612551 0.0616993 0.0621426 0.0625949 0.0626183 0.0626418 0.0626655 0.0626893 0.0627129 0.0631329 0.0635521 0.0639704 0.0643925 0.064825 0.0652482 0.0656719 0.0660992 0.0665257 0.0669262 0.0669468 0.0669675 0.0669882 0.0670091 0.0670301 0.0674706 0.0679104 0.0683491 0.0687926 0.0692469 0.0695502 0.0698535 0.0701598 0.0704657 0.0707588 0.0708952 0.0710315 0.0711678 0.071306 0.0714453 0.0718809 0.0723156 0.0727527 0.0731928 0.0736434 0.0737751 0.0739068 0.07404 0.0741732 0.0743042 0.0746101 0.0749156 0.0752209 0.075531 0.0758458 0.0762041 0.0765618 0.0769251 0.0772881 0.0776386 0.0777178 0.0777969 0.0778761 0.077957 0.0780381 0.0784737 0.078909 0.0793487 0.079794 0.0802462 0.0803615 0.0804768 0.0805944 0.0807121 0.0808289 0.0811529 0.0814768 0.0818012 0.0821342 0.0824682 0.0827624 0.0830566 0.0833583 0.0836607 0.0839627 0.0841055 0.0842482 0.0843914 0.0845394 0.0846868 0.085122 0.0855575 0.0860044 0.0864566 0.086904 0.0869489 0.0869938 0.0870402 0.0870867 0.0871333 0.087529 0.0879249 0.0883218 0.088735 0.0891349 0.0893856 0.0896365 0.0898978 0.0901593 0.0904356 0.0906072 0.0907788 0.0909504 0.0911307 0.0913075 0.0917203 0.0921328 0.0925594 0.0930008 0.0934153 0.0935366 0.0936593 0.0937871 0.0939147 0.0940503 0.0943256 0.0946004 0.0948746 0.0951659 0.0954504 0.0958137 0.096175 0.09656 0.0969646 0.0973455 0.097517 0.0976967 0.0978828 0.0980683 0.0982841 0.0984458 0.098607 0.0987676 0.0989304 0.0990948 0.0994106 0.0997337 0.100057 0.100392 0.100713 0.100997 0.101277 0.101568 0.101866 0.102158 0.102413 0.102676 0.102937 0.103196 0.10345 0.103488 0.103527 0.103566 0.103604 0.103645 0.103845 0.104043 0.10424 0.104436 0.104578 0.104839 0.105054 0.105267 0.105453 0.105589 0.105831 0.106064 0.106256 0.106379 0.1065 0.106722 0.106943 0.107106 0.107213 0.10732 0.107524 0.107724 0.107863 0.107964 0.108058 0.108244 0.108401 0.108527 0.108638 0.10872 0.108891 0.109011 0.109124 0.109237 0.109312 0.109455 0.109557 0.109658 0.109759 0.10984 0.109953 0.110044 0.110134 0.110224 0.110307 0.110362 0.110408 0.110455 0.110501 0.110555 0.110587 0.110619 0.110652 0.110684 0.110707 0.110786 0.110857 0.110928 0.110998 0.111041 0.111129 0.11119 0.111252 0.111313 0.111331 0.111425 0.111478 0.111531 0.111584 0.11158 0.111678 0.111723 0.111767 0.111812 0.11179 0.11189 0.111927 0.111964 0.111995 0.111963 0.112054 0.112094 0.112124 0.112138 0.112102 0.112184 0.112226 0.11225 0.112249 0.112209 0.112282 0.112326 0.112343 0.112329 0.112286 0.112351 0.112395 0.112406 0.112381 0.112335 0.112393 0.112435 0.112442 0.112406 0.112358 0.112408 0.112449 0.112451 0.112407 0.112356 0.112399 0.112439 0.112435 0.112384 0.112331 0.112367 0.112404 0.112395 0.11234 0.112285 0.112315 0.112345 0.112333 0.112276 0.112218 0.112243 0.112268 0.112251 0.112193 0.112134 0.112153 0.112172 0.112152 0.112092 0.112032 0.112046 0.112061 0.112037 0.111976 0.111915 0.111924 0.111933 0.111907 0.111845 0.111782 0.111787 0.111792 0.111763 0.1117 0.111637 0.111638 0.111638 0.111607 0.111543 0.111479 0.111476 0.111473 0.111439 0.111374 0.111309 0.111303 0.111296 0.11126 0.111194 0.111129 0.111119 0.111109 0.111071 0.111005 0.11094 0.110926 0.110913 0.110873 0.110807 0.110741 0.110725 0.110708 0.110667 0.110601 0.110535 0.110516 0.110497 0.110454 0.110387 0.110321 0.1103 0.110278 0.110234 0.110167 0.110101 0.110077 0.110053 0.110007 0.109941 0.109875 0.109849 0.109823 0.109776 0.10971 0.109644 0.109615 0.109587 0.109539 0.109473 0.109407 0.109377 0.109347 0.109298 0.109233 0.109167 0.109135 0.109103 0.109054 0.108988 0.108922 0.108889 0.108855 0.108805 0.10874 0.108674 0.108639 0.108604 0.108553 0.108488 0.108423 0.108386 0.10835 0.108299 0.108234 0.108169 0.108131 0.108093 0.108042 0.107977 0.107913 0.107874 0.107835 0.107783 0.107718 0.107654 0.107614 0.107574 0.107522 0.107458 0.107394 0.107353 0.107312 0.10726 0.107196 0.107133 0.107091 0.107049 0.106996 0.106933 0.10687 0.106827 0.106784 0.106731 0.106669 0.106606 0.106563 0.106519 0.106466 0.106403 0.106341 0.106297 0.106252 0.106199 0.106137 0.106074 0.106029 0.105984 0.105931 0.105869 0.105807 0.105761 0.105715 0.105661 0.1056 0.105538 0.105492 0.105445 0.105391 0.10533 0.105269 0.105222 0.105175 0.105121 0.10506 0.104999 0.104952 0.104904 0.10485 0.10479 0.104729 0.104681 0.104633 0.104579 0.104519 0.104459 0.10441 0.104362 0.104308 0.104248 0.104188 0.104139 0.10409 0.104036 0.103976 0.103917 0.103868 0.103819 0.103764 0.103705 0.103646 0.103596 0.103547 0.103492 0.103433 0.103374 0.103324 0.103275 0.10322 0.103162 0.103103 0.103053 0.103003 0.102948 0.10289 0.102831 0.102781 0.102731 0.102676 0.102618 0.10256 0.102509 0.102459 0.102404 0.102346 0.102288 0.102237 0.102187 0.102132 0.102075 0.102017 0.101966 0.101915 0.101861 0.101803 0.101746 0.101695 0.101644 0.10159 0.101533 0.101475 0.101424 0.101373 0.101319 0.101263 0.101206 0.101155 0.101104 0.10105 0.100994 0.100938 0.100887 0.100836 0.100782 0.100726 0.100671 0.10062 0.100569 0.100516 0.100461 0.100406 0.100356 0.100305 0.100253 0.100199 0.100144 0.100094 0.100045 0.0999929 0.0999399 0.0998868 0.0998376 0.0997884 0.0997379 0.0996863 0.0996346 0.0995865 0.0995383 0.0994893 0.0994396 0.0993898 0.0993432 0.0992965 0.0992495 0.0992022 0.0991548 0.0991103 0.0990657 0.0990213 0.0989772 0.0989332 0.0988914 0.0988497 0.0988089 0.0987692 0.0987295 0.0986917 0.0986539 0.0986181 0.0985843 0.0985504 0.098518 0.0984856 0.0984566 0.0984311 0.0984056 0.098381 0.0983565 0.0983368 0.0983222 0.0983076 0.0982935 0.0982794 0.0982739 0.0982769 0.09828 0.0982833 0.0982865 0.0983001 0.098324 0.0983479 0.0983728 0.0983978 0.0984495 0.0985281 0.0986067 0.09869 0.0987732 0.0988427 0.0989007 0.0989588 0.0990318 0.0991049 0.0993193 0.0996932 0.100067 0.100498 0.100928 0.10096 0.10061 0.100258 0.0999997 0.0997402 0.0993908 0.0989537 0.098515 0.0981598 0.0978041 0.0974525 0.0971126 0.0967717 0.0964977 0.0962216 0.0959046 0.0955547 0.0952017 0.0949036 0.0945972 0.0942473 0.0938592 0.0934622 0.0931116 0.0927525 0.0923668 0.091958 0.0915406 0.0911628 0.0907763 0.0903704 0.0899474 0.0895159 0.0891184 0.0887105 0.0882843 0.0878413 0.087388 0.0869647 0.0865291 0.086076 0.0856066 0.0851248 0.0846698 0.0842014 0.0837171 0.083218 0.0827054 0.0822166 0.0817129 0.0811944 0.0806623 0.0801151 0.0795891 0.079046 0.078489 0.077919 0.0773316 0.076763 0.0761746 0.0755727 0.0749585 0.0743241 0.0737059 0.0730657 0.0724133 0.0717501 0.0710643 0.0703922 0.0696941 0.068985 0.0682662 0.0675207 0.0667864 0.0660229 0.0652503 0.0644701 0.0636599 0.0628581 0.062018 0.0611698 0.0603158 0.0594223 0.058534 0.0576083 0.0566785 0.0557465 0.0547758 0.0538075 0.052772 0.051735 0.050698 0.0495971 0.0484893 0.0473587 0.0462281 0.0450976 0.0439458 0.0427615 0.0414498 0.0401382 0.0388265 0.037408 0.0359642 0.0345886 0.033213 0.0318374 0.0305186 0.0290183 0.0271918 0.0253652 0.0235386 0.0215134 0.0196296 0.0180244 0.0164191 0.0148139 0.0134626 0.0116774 0.00932237 0.00696735 0.00603152