# vtk DataFile Version 2.0
track0
ASCII
DATASET POLYDATA
POINTS 10971 float
-0.0205 0.001 1e-05
-0.02052 0.00100031 1e-05
-0.02054 0.00100057 1e-05
-0.02056 0.00100076 1e-05
-0.02058 0.00100088 1e-05
-0.0206 0.00100095 1e-05
-0.0205 0.00367778 1e-05
-0.02052 0.00367794 1e-05
-0.02054 0.00367807 1e-05
-0.02056 0.00367817 1e-05
-0.02058 0.00367824 1e-05
-0.0206 0.00367827 1e-05
-0.0205 0.00635556 1e-05
-0.02052 0.00635561 1e-05
-0.02054 0.00635565 1e-05
-0.02056 0.00635568 1e-05
-0.02058 0.0063557 1e-05
-0.0206 0.00635571 1e-05
-0.0205 0.00903333 1e-05
-0.02052 0.00903336 1e-05
-0.02054 0.00903338 1e-05
-0.02056 0.00903339 1e-05
-0.02058 0.0090334 1e-05
-0.0206 0.00903341 1e-05
-0.0205 0.0117111 1e-05
-0.02052 0.0117111 1e-05
-0.02054 0.0117111 1e-05
-0.02056 0.0117111 1e-05
-0.02058 0.0117111 1e-05
-0.0206 0.0117111 1e-05
-0.0205 0.0143889 1e-05
-0.02052 0.0143889 1e-05
-0.02054 0.0143889 1e-05
-0.02056 0.0143889 1e-05
-0.02058 0.0143889 1e-05
-0.0206 0.0143889 1e-05
-0.0205 0.0170667 1e-05
-0.02052 0.0170666 1e-05
-0.02054 0.0170666 1e-05
-0.02056 0.0170666 1e-05
-0.02058 0.0170666 1e-05
-0.0206 0.0170666 1e-05
-0.0205 0.0197444 1e-05
-0.02052 0.0197444 1e-05
-0.02054 0.0197443 1e-05
-0.02056 0.0197442 1e-05
-0.02058 0.0197442 1e-05
-0.0206 0.0197442 1e-05
-0.0205 0.0224222 1e-05
-0.02052 0.022422 1e-05
-0.02054 0.0224219 1e-05
-0.02056 0.0224217 1e-05
-0.02058 0.0224217 1e-05
-0.0206 0.0224216 1e-05
-0.0205 0.0251 1e-05
-0.02052 0.025098 1e-05
-0.02054 0.0250964 1e-05
-0.0205601 0.0250952 1e-05
-0.0205802 0.0250944 1e-05
-0.0206 0.025094 1e-05
-0.0205 0.001 1e-05
-0.0202034 0.000995344 1e-05
-0.0199071 0.000981594 1e-05
-0.0196114 0.000958852 1e-05
-0.0193165 0.000926848 1e-05
-0.0190172 0.000887523 1e-05
-0.0187132 0.000848099 1e-05
-0.0184092 0.000809577 1e-05
-0.0181051 0.000771938 1e-05
-0.0178006 0.000737113 1e-05
-0.0174976 0.000705168 1e-05
-0.0174046 0.000696248 1e-05
-0.0173116 0.000687615 1e-05
-0.0172186 0.000679223 1e-05
-0.0171255 0.000671041 1e-05
-0.0170033 0.000660565 1e-05
-0.0168104 0.000644586 1e-05
-0.0166174 0.000629514 1e-05
-0.0164243 0.000615307 1e-05
-0.0162312 0.000601923 1e-05
-0.0160387 0.000589266 1e-05
-0.0157586 0.000571333 1e-05
-0.0154783 0.000554941 1e-05
-0.0151981 0.000539839 1e-05
-0.0149177 0.000525854 1e-05
-0.0146381 0.000512475 1e-05
-0.0143692 0.000500036 1e-05
-0.0141002 0.000488662 1e-05
-0.0138312 0.000478275 1e-05
-0.0135621 0.000468479 1e-05
-0.0132934 0.000458979 1e-05
-0.0130353 0.000450122 1e-05
-0.0127771 0.000442044 1e-05
-0.0125188 0.000434624 1e-05
-0.0122606 0.000427535 1e-05
-0.0120025 0.000420668 1e-05
-0.0117547 0.000414227 1e-05
-0.0115068 0.000408357 1e-05
-0.0112589 0.000402835 1e-05
-0.011011 0.000397544 1e-05
-0.0107632 0.000392458 1e-05
-0.0105252 0.000387652 1e-05
-0.0102873 0.000383274 1e-05
-0.0100493 0.000379062 1e-05
-0.0098113 0.000375012 1e-05
-0.00957337 0.000371123 1e-05
-0.00934491 0.000367441 1e-05
-0.00911645 0.00036403 1e-05
-0.00888798 0.000360736 1e-05
-0.00865952 0.000357555 1e-05
-0.00843108 0.000354488 1e-05
-0.00821175 0.00035159 1e-05
-0.00799242 0.000348861 1e-05
-0.00777309 0.000346213 1e-05
-0.00755375 0.000343644 1e-05
-0.00733443 0.000341155 1e-05
-0.00712387 0.000338805 1e-05
-0.0069133 0.000336556 1e-05
-0.00670273 0.000334359 1e-05
-0.00649216 0.000332216 1e-05
-0.0062816 0.000330124 1e-05
-0.00607944 0.000328149 1e-05
-0.00587729 0.000326224 1e-05
-0.00567514 0.000324327 1e-05
-0.00547298 0.000322459 1e-05
-0.00527083 0.000320619 1e-05
-0.00523119 0.000320264 1e-05
-0.00519155 0.000319909 1e-05
-0.00515191 0.000319554 1e-05
-0.00511227 0.000319199 1e-05
-0.00507225 0.000318841 1e-05
-0.00491789 0.00031746 1e-05
-0.00476353 0.000316081 1e-05
-0.00460917 0.000314705 1e-05
-0.0044548 0.000313331 1e-05
-0.00430044 0.000311959 1e-05
-0.00411412 0.000310281 1e-05
-0.0039278 0.000308599 1e-05
-0.00374147 0.000306884 1e-05
-0.00355515 0.000305137 1e-05
-0.00336883 0.000303359 1e-05
-0.00318995 0.000301565 1e-05
-0.00301107 0.000299748 1e-05
-0.00283219 0.000297831 1e-05
-0.00265332 0.000295816 1e-05
-0.00247443 0.000293703 1e-05
-0.0023027 0.000291481 1e-05
-0.00213097 0.000289193 1e-05
-0.00195924 0.000286663 1e-05
-0.00178752 0.000283894 1e-05
-0.00161577 0.00028089 1e-05
-0.0014509 0.000277589 1e-05
-0.00128603 0.000274135 1e-05
-0.00112118 0.000269975 1e-05
-0.00095635 0.000265126 1e-05
-0.000791418 0.0002596 1e-05
-0.000633135 0.000253101 1e-05
-0.000474873 0.000246089 1e-05
-0.000316703 0.000237234 1e-05
-0.000158647 0.00022655 1e-05
0 0.000213848 1e-05
0.000105677 0.000203396 1e-05
0.00021105 0.00019022 1e-05
0.000316157 0.000175074 1e-05
0.000421108 0.000158879 1e-05
0.000528387 0.000142427 1e-05
0.000634886 0.00012621 1e-05
0.000741218 0.000108927 1e-05
0.000847416 9.08451e-05 1e-05
0.000953611 7.27475e-05 1e-05
0.00106088 5.45461e-05 1e-05
0.00112729 4.36369e-05 1e-05
0.00119368 3.26096e-05 1e-05
0.00126008 2.16497e-05 1e-05
0.00132649 1.0772e-05 1e-05
0.00139278 0 1e-05
0.00143372 -6.60197e-06 1e-05
0.00147468 -1.31762e-05 1e-05
0.00151563 -1.97226e-05 1e-05
0.0015566 -2.62412e-05 1e-05
0.00159752 -3.27247e-05 1e-05
0.00170568 -4.94295e-05 1e-05
0.00181383 -6.62309e-05 1e-05
0.00192201 -8.27896e-05 1e-05
0.00203023 -9.91044e-05 1e-05
0.00213833 -0.000114995 1e-05
0.00224733 -0.000130231 1e-05
0.00235631 -0.000145589 1e-05
0.00246528 -0.00016106 1e-05
0.00257429 -0.000176289 1e-05
0.00268334 -0.000191018 1e-05
0.00279319 -0.000205345 1e-05
0.00290303 -0.000219742 1e-05
0.00301286 -0.000234209 1e-05
0.00312271 -0.000248542 1e-05
0.00323259 -0.000262579 1e-05
0.00334329 -0.000276374 1e-05
0.00345399 -0.000290223 1e-05
0.00356469 -0.000304009 1e-05
0.00367541 -0.0003177 1e-05
0.00378611 -0.000331294 1e-05
0.003853 -0.000339395 1e-05
0.00391989 -0.000347507 1e-05
0.00398678 -0.000355598 1e-05
0.00405368 -0.00036367 1e-05
0.00412124 -0.000371802 1e-05
0.00416578 -0.00037715 1e-05
0.00421032 -0.000382488 1e-05
0.00425486 -0.000387818 1e-05
0.0042994 -0.00039314 1e-05
0.00434393 -0.000398451 1e-05
0.00445636 -0.000411799 1e-05
0.00456879 -0.000425184 1e-05
0.00468122 -0.000438549 1e-05
0.00479365 -0.000451895 1e-05
0.00490609 -0.000465223 1e-05
0.0050194 -0.000478522 1e-05
0.00513269 -0.000491952 1e-05
0.00524597 -0.00050543 1e-05
0.00535926 -0.00051892 1e-05
0.00547262 -0.000532376 1e-05
0.00558681 -0.000545849 1e-05
0.00570098 -0.000559457 1e-05
0.00581513 -0.0005732 1e-05
0.00592928 -0.000586982 1e-05
0.00604356 -0.000600748 1e-05
0.00615863 -0.000614577 1e-05
0.00627369 -0.00062855 1e-05
0.00638873 -0.000642664 1e-05
0.00650376 -0.00065686 1e-05
0.00661893 -0.000671096 1e-05
0.0067349 -0.000685437 1e-05
0.00685085 -0.000699931 1e-05
0.00696679 -0.000714542 1e-05
0.00708271 -0.000729255 1e-05
0.00719878 -0.00074409 1e-05
0.0072917 -0.000756008 1e-05
0.00738461 -0.000768022 1e-05
0.0074775 -0.000780114 1e-05
0.00757039 -0.000792282 1e-05
0.00765658 -0.000803645 1e-05
0.00768189 -0.000807001 1e-05
0.0077072 -0.000810363 1e-05
0.00773251 -0.000813731 1e-05
0.00775782 -0.000817105 1e-05
0.00778313 -0.000820485 1e-05
0.00790091 -0.000836228 1e-05
0.00801867 -0.000852125 1e-05
0.00813641 -0.00086816 1e-05
0.00825414 -0.000884334 1e-05
0.00837203 -0.000900671 1e-05
0.00849073 -0.000917221 1e-05
0.00860939 -0.000933982 1e-05
0.00872804 -0.000950909 1e-05
0.00884666 -0.00096799 1e-05
0.00896551 -0.000985238 1e-05
0.00908513 -0.00100272 1e-05
0.00920472 -0.00102041 1e-05
0.00932427 -0.00103832 1e-05
0.0094438 -0.00105641 1e-05
0.0095636 -0.00107467 1e-05
0.00968415 -0.00109319 1e-05
0.00980466 -0.00111193 1e-05
0.00992514 -0.0011309 1e-05
0.0100456 -0.00115006 1e-05
0.0101663 -0.00116944 1e-05
0.0102878 -0.0011891 1e-05
0.0104093 -0.001209 1e-05
0.0105307 -0.0012291 1e-05
0.0106521 -0.00124942 1e-05
0.0107738 -0.00127 1e-05
0.010804 -0.00127517 1e-05
0.0108343 -0.00128035 1e-05
0.0108646 -0.00128555 1e-05
0.0108949 -0.00129077 1e-05
0.0109243 -0.00129584 1e-05
0.0110166 -0.00131183 1e-05
0.0111089 -0.00132793 1e-05
0.0112012 -0.00134416 1e-05
0.0112935 -0.00136052 1e-05
0.0113859 -0.00137703 1e-05
0.0115093 -0.00139923 1e-05
0.0116326 -0.00142169 1e-05
0.0117559 -0.00144438 1e-05
0.0118792 -0.0014673 1e-05
0.0120028 -0.00149052 1e-05
0.0121272 -0.00151408 1e-05
0.0122515 -0.00153792 1e-05
0.0123757 -0.00156203 1e-05
0.0124999 -0.00158639 1e-05
0.0126245 -0.00161106 1e-05
0.0127498 -0.00163609 1e-05
0.0128751 -0.0016614 1e-05
0.0130003 -0.00168699 1e-05
0.0131254 -0.00171284 1e-05
0.0132511 -0.00173906 1e-05
0.0133542 -0.00176079 1e-05
0.0134574 -0.00178272 1e-05
0.0135604 -0.00180482 1e-05
0.0136635 -0.0018271 1e-05
0.0137576 -0.00184762 1e-05
0.0137825 -0.00185311 1e-05
0.0138075 -0.00185862 1e-05
0.0138325 -0.00186413 1e-05
0.0138575 -0.00186965 1e-05
0.0138825 -0.00187519 1e-05
0.0140098 -0.00190345 1e-05
0.014137 -0.00193199 1e-05
0.0142641 -0.0019608 1e-05
0.0143912 -0.0019899 1e-05
0.0145188 -0.00201943 1e-05
0.0146471 -0.00204937 1e-05
0.0147752 -0.00207962 1e-05
0.0149033 -0.0021102 1e-05
0.0150314 -0.00214106 1e-05
0.0151601 -0.00217236 1e-05
0.0152893 -0.0022041 1e-05
0.0154185 -0.00223616 1e-05
0.0155476 -0.00226854 1e-05
0.0156766 -0.00230123 1e-05
0.0158063 -0.00233443 1e-05
0.0159045 -0.00235979 1e-05
0.0160027 -0.00238535 1e-05
0.0161008 -0.00241108 1e-05
0.0161989 -0.002437 1e-05
0.0162896 -0.00246115 1e-05
0.0163232 -0.00247016 1e-05
0.0163568 -0.0024792 1e-05
0.0163904 -0.00248825 1e-05
0.016424 -0.00249732 1e-05
0.0164576 -0.00250643 1e-05
0.0165889 -0.00254207 1e-05
0.0167201 -0.00257805 1e-05
0.0168511 -0.00261435 1e-05
0.0169821 -0.00265098 1e-05
0.0171139 -0.00268819 1e-05
0.0172462 -0.00272588 1e-05
0.0173784 -0.00276392 1e-05
0.0175105 -0.00280233 1e-05
0.0176425 -0.00284109 1e-05
0.0177754 -0.00288047 1e-05
0.0179087 -0.00292033 1e-05
0.0180419 -0.00296057 1e-05
0.018175 -0.00300117 1e-05
0.018308 -0.00304214 1e-05
0.018442 -0.00308381 1e-05
0.0184778 -0.00309506 1e-05
0.0185136 -0.00310634 1e-05
0.0185494 -0.00311764 1e-05
0.0185853 -0.00312898 1e-05
0.0186202 -0.00314005 1e-05
[...]
POINT_DATA 10971
 FIELD attributes 2
p 1 10971 float
-0.108264 -0.108157 -0.108046 -0.107933 -0.107816 -0.107696
-0.0585864 -0.0585808 -0.0585762 -0.0585725 -0.0585698 -0.0585679
0.00463719 0.00471031 0.00478318 0.00485581 0.0049282 0.00498732
0.04123 0.0412081 0.0411862 0.0411642 0.0411421 0.04112
0.0570658 0.0570055 0.0569452 0.0568849 0.0568246 0.0567643
0.0550506 0.0549963 0.0549419 0.0548876 0.0548332 0.0547789
0.0378351 0.0377956 0.037756 0.0377163 0.0376765 0.0376367
-0.00397645 -0.00399586 -0.00401565 -0.00403583 -0.00405638 -0.00407732
-0.0720228 -0.0720099 -0.0719981 -0.0719876 -0.0719781 -0.0719698
-0.046995 -0.0474067 -0.0477967 -0.0481646 -0.0485102 -0.0488289
-0.108264 -0.102268 -0.0964819 -0.0913674 -0.0835719 -0.0676334 -0.0532433 -0.0388814 -0.031153 -0.0236519 -0.0177589 -0.0159632 -0.0143877 -0.0129493 -0.0115124 -0.00962701 -0.00634969 -0.00309643 0.000133851 0.00314267 0.00547151 0.00941381 0.0130283 0.0164065 0.0189648 0.0213208 0.0240417 0.0267515 0.0288688 0.030418 0.0319625 0.033838 0.0356139 0.0369569 0.0380719 0.0390669 0.0403633 0.0413983 0.0422851 0.0431254 0.0437305 0.0446102 0.0451693 0.045726 0.0462822 0.0466512 0.0471556 0.0474696 0.0477832 0.0480965 0.0483035 0.048543 0.0486719 0.0488007 0.0489292 0.0490002 0.0490417 0.0490225 0.0490031 0.0489836 0.0489378 0.0488182 0.0486705 0.0485228 0.048375 0.0482232 0.0481717 0.0481158 0.04806 0.0480042 0.0479478 0.0477335 0.0475191 0.0473048 0.0470904 0.0468574 0.0464634 0.0460491 0.0456349 0.045221 0.0447616 0.044198 0.0435759 0.0429544 0.0423333 0.0416184 0.0407756 0.039793 0.0388123 0.0378332 0.0366351 0.0352464 0.0334731 0.0317081 0.0299514 0.0274592 0.0247684 0.0219149 0.019061 0.0150596 0.00909107 0.00556651 0.00194588 0.00097861 0.00286198 0.00479089 0.00731025 0.00968345 0.011698 0.0135956 0.0149382 0.0163779 0.0169432 0.0174462 0.0179531 0.018463 0.0189649 0.0194675 0.0199706 0.0204742 0.020759 0.0212645 0.0215625 0.0218651 0.0221595 0.0224303 0.0228706 0.0233036 0.0234732 0.0236307 0.0237954 0.0241596 0.0245228 0.024799 0.0248971 0.0249484 0.0251804 0.0253534 0.0255107 0.0256692 0.0257152 0.0257884 0.0258374 0.0258865 0.0259358 0.0259858 0.0260287 0.0260717 0.0261147 0.0261578 0.0261934 0.0262814 0.0263339 0.0263866 0.0264394 0.0264609 0.0265553 0.0265945 0.0266099 0.0266046 0.0265871 0.0266435 0.0266989 0.0266964 0.0266578 0.0266194 0.0266514 0.0266827 0.0266855 0.0266461 0.0265966 0.0266139 0.0266128 0.0266036 0.0265937 0.0265489 0.0265522 0.0265422 0.0265318 0.0265209 0.0265105 0.0265088 0.0265071 0.0265054 0.0265036 0.026499 0.0265009 0.026496 0.0264904 0.0264842 0.0264622 0.0264897 0.0264959 0.0264962 0.0264866 0.0264694 0.0265032 0.0265359 0.0265468 0.0265414 0.0265354 0.026579 0.0266199 0.0266481 0.0266644 0.0266722 0.0267283 0.0267719 0.0268137 0.0268545 0.0268891 0.0269062 0.0269207 0.0269352 0.0269496 0.0269636 0.0270097 0.0270553 0.0271003 0.0271448 0.0271832 0.0272738 0.0273512 0.0274276 0.0274988 0.0275646 0.027672 0.0277781 0.0278711 0.0279541 0.0280366 0.0281601 0.02828 0.0283922 0.0284999 0.0285987 0.0287122 0.0288177 0.0289225 0.0290264 0.0291206 0.0291462 0.0291718 0.0291973 0.0292227 0.0292472 0.0293989 0.0295467 0.0296933 0.029838 0.0299773 0.0301502 0.0303204 0.0304805 0.030634 0.0307872 0.0309737 0.0311579 0.0313348 0.0315065 0.0316722 0.031822 0.0319658 0.0321084 0.0322502 0.0323807 0.0324302 0.0324796 0.0325289 0.032578 0.032627 0.0328373 0.0330429 0.0332471 0.0334494 0.0336505 0.0338749 0.0340977 0.0343127 0.0345224 0.0347323 0.0349652 0.0351951 0.0354222 0.0356477 0.0358685 0.0359325 0.0359958 0.0360588 0.0361217 0.0361829 0.0363608 0.0365379 0.0367141 0.0368899 0.03707 0.0373256 0.037577 0.037824 0.0380747 0.0383263 0.0385881 0.0388488 0.039112 0.0393723 0.039629 0.0397599 0.0398922 0.0400245 0.0401565 0.0402822 0.0404238 0.040565 0.0407057 0.0408474 0.0409958 0.0412814 0.0415634 0.0418432 0.042133 0.0424272 0.0427176 0.0430072 0.0433072 0.0436045 0.0439018 0.044042 0.044186 0.0443315 0.0444766 0.0446153 0.0447795 0.0449433 0.0451065 0.0452723 0.0454481 0.0457651 0.0460805 0.0463941 0.0467264 0.0470636 0.0473839 0.0477075 0.0480445 0.0483796 0.048718 0.0488052 0.0488956 0.0489879 0.0490801 0.04917 0.0494244 0.0496779 0.0499302 0.0501882 0.0504636 0.050812 0.0511583 0.0515133 0.0518857 0.0522637 0.0525877 0.0529242 0.0532686 0.0536112 0.0539273 0.0539615 0.0539958 0.05403 0.0540654 0.0541029 0.0544838 0.0548642 0.0552425 0.055635 0.0560518 0.056429 0.0568039 0.0572053 0.0576094 0.0580239 0.0581818 0.0583456 0.0585151 0.0586841 0.0588475 0.0590876 0.059327 0.0595656 0.0598155 0.0600864 0.0604849 0.0608817 0.0613002 0.0617518 0.0622148 0.062544 0.0628902 0.0632536 0.0636156 0.0639556 0.064037 0.0641185 0.0641998 0.064286 0.0643759 0.064807 0.0652433 0.0656774 0.0661472 0.0666344 0.0669906 0.0673554 0.0677408 0.0681249 0.0684862 0.0685704 0.0686546 0.0687387 0.0688274 0.0689183 0.0693772 0.0698398 0.0703022 0.0707935 0.071301 0.0715873 0.0718764 0.0721804 0.0724836 0.0727745 0.0729602 0.0731455 0.0733306 0.0735252 0.0737241 0.0742052 0.0746842 0.0751782 0.0756862 0.0762126 0.0763387 0.076465 0.076598 0.0767307 0.0768615 0.0772373 0.0776121 0.0779859 0.0783778 0.0787807 0.0791758 0.0795698 0.0799828 0.0803949 0.0807908 0.0809092 0.0810274 0.0811459 0.08127 0.0813951 0.0819195 0.0824424 0.0829779 0.0835267 0.084094 0.0841952 0.0842962 0.0844016 0.0845073 0.0846122 0.0850576 0.0855021 0.0859483 0.0864134 0.0868887 0.0871808 0.0874725 0.0877759 0.0880811 0.0883814 0.0886509 0.0889202 0.0891918 0.0894749 0.0897604 0.0902322 0.0907036 0.0911943 0.0916893 0.0921779 0.0922828 0.0923876 0.0924936 0.0926045 0.0927155 0.0933088 0.093902 0.0945146 0.0951447 0.0957751 0.0958319 0.0958888 0.0959481 0.0960081 0.0960682 0.0966313 0.0971947 0.0977659 0.098366 0.0989533 0.0991821 0.0994109 0.0996515 0.0998949 0.100142 0.10054 0.100939 0.101342 0.101769 0.102181 0.102628 0.103076 0.10355 0.104029 0.104535 0.104702 0.10487 0.105038 0.105218 0.105394 0.106012 0.10663 0.107278 0.107954 0.108569 0.108727 0.108886 0.109055 0.109225 0.109403 0.109843 0.110283 0.110721 0.111198 0.111646 0.112189 0.112732 0.113328 0.11392 0.114475 0.114587 0.114704 0.114828 0.114952 0.115084 0.115492 0.115896 0.116298 0.116715 0.117121 0.117575 0.118024 0.118504 0.119012 0.119483 0.119881 0.120296 0.120719 0.121137 0.121546 0.121652 0.121766 0.12188 0.121994 0.122121 0.12238 0.122637 0.122891 0.123144 0.123319 0.123716 0.124051 0.124382 0.124659 0.124873 0.125235 0.125592 0.12587 0.12606 0.126247 0.126574 0.126898 0.127136 0.127301 0.127463 0.12776 0.128019 0.128221 0.128401 0.128541 0.12881 0.129001 0.129183 0.129363 0.129496 0.129713 0.129875 0.130037 0.130197 0.130339 0.130462 0.130563 0.130664 0.130765 0.130889 0.130927 0.130965 0.131002 0.13104 0.13106 0.131205 0.131334 0.131461 0.131589 0.131639 0.131824 0.131937 0.132049 0.132161 0.132148 0.132364 0.132463 0.132561 0.132658 0.132591 0.132822 0.132917 0.133001 0.133054 0.132973 0.133188 0.133305 0.133378 0.133384 0.133298 0.133497 0.133632 0.133693 0.133661 0.13357 0.133754 0.133903 0.133954 0.133887 0.133792 0.133961 0.134121 0.134162 0.134066 0.133968 0.134123 0.134277 0.134304 0.134202 0.1341 0.134241 0.134382 0.134401 0.134295 0.134191 0.13432 0.134449 0.134459 0.134351 0.134244 0.134361 0.134478 0.134481 0.134371 0.134262 0.134369 0.134475 0.134471 0.134359 0.134248 0.134344 0.13444 0.13443 0.134316 0.134203 0.13429 0.134376 0.134359 0.134245 0.13413 0.134207 0.134283 0.134261 0.134145 0.13403 0.134097 0.134157 0.134129 0.134021 0.133904 0.133964 0.134007 0.133975 0.133873 0.133756 0.133807 0.133837 0.1338 0.133704 0.133586 0.13363 0.133646 0.133606 0.133515 0.133397 0.133434 0.133438 0.133395 0.133308 0.13319 0.133219 0.133213 0.133167 0.133083 0.132965 0.132988 0.132973 0.132923 0.132843 0.132725 0.132742 0.132719 0.132666 0.132588 0.132471 0.132482 0.132451 0.132396 0.13232 0.132203 0.132209 0.132171 0.132114 0.13204 0.131923 0.131924 0.13188 0.131821 0.131748 0.131632 0.131628 0.131579 0.131517 0.131446 0.13133 0.131323 0.131268 0.131205 0.131135 0.13102 0.131008 0.130949 0.130884 0.130815 0.1307 0.130684 0.130622 0.130556 0.130487 0.130373 0.130354 0.130288 0.13022 0.130152 0.130039 0.130016 0.129947 0.129879 0.12981 0.129699 0.129671 0.129601 0.129531 0.129461 0.129353 0.129321 0.12925 0.129179 0.129108 0.129001 0.128965 0.128894 0.128822 0.12875 0.128645 0.128606 0.128533 0.128461 0.128388 0.128286 0.128243 0.12817 0.128096 0.128023 0.127922 0.127876 0.127802 0.127729 0.127655 0.127555 0.127507 0.127432 0.127358 0.127284 0.127186 0.127135 0.12706 0.126985 0.12691 0.126814 0.126761 0.126685 0.12661 0.126535 0.12644 0.126385 0.126309 0.126234 0.126158 0.126064 0.126007 0.125931 0.125855 0.12578 0.125686 0.125628 0.125552 0.125476 0.1254 0.125307 0.125247 0.125171 0.125095 0.125019 0.124927 0.124866 0.12479 0.124713 0.124637 0.124546 0.124484 0.124407 0.124331 0.124254 0.124165 0.124101 0.124025 0.123948 0.123872 0.123783 0.123718 0.123642 0.123565 0.123489 0.123401 0.123335 0.123259 0.123182 0.123106 0.123019 0.122953 0.122876 0.122799 0.122723 0.122637 0.12257 0.122493 0.122417 0.12234 0.122255 0.122187 0.122111 0.122034 0.121958 0.121873 0.121805 0.121729 0.121652 0.121576 0.121492 0.121423 0.121347 0.121271 0.121194 0.121111 0.121042 0.120966 0.12089 0.120814 0.12073 0.120661 0.120585 0.120509 0.120433 0.12035 0.120281 0.120205 0.120129 0.120053 0.11997 0.119901 0.119825 0.119749 0.119673 0.119591 0.119521 0.119445 0.119369 0.119293 0.119212 0.119141 0.119065 0.11899 0.118914 0.118833 0.118762 0.118687 0.118611 0.118535 0.118455 0.118384 0.118308 0.118233 0.118157 0.118077 0.118006 0.117931 0.117856 0.11778 0.117701 0.117629 0.117554 0.117479 0.117404 0.117325 0.117253 0.117178 0.117103 0.117028 0.116949 0.116878 0.116803 0.116728 0.116653 0.116575 0.116503 0.116428 0.116353 0.116279 0.116201 0.116129 0.116054 0.11598 0.115905 0.115827 0.115756 0.115681 0.115606 0.115532 0.115454 0.115383 0.115308 0.115234 0.115159 0.115082 0.11501 0.114936 0.114861 0.114787 0.11471 0.114638 0.114564 0.11449 0.114415 0.114339 0.114267 0.114193 0.114118 0.114044 0.113968 0.113896 0.113822 0.113747 0.113673 0.113597 0.113525 0.113451 0.113377 0.113303 0.113227 0.113155 0.113081 0.113007 0.112933 0.112857 0.112785 0.112711 0.112637 0.112563 0.112487 0.112415 0.112342 0.112268 0.112194 0.112119 0.112046 0.111973 0.111899 0.111825 0.11175 0.111678 0.111604 0.111531 0.111457 0.111382 0.11131 0.111237 0.111164 0.11109 0.111016 0.110944 0.11087 0.110797 0.110724 0.11065 0.110578 0.110505 0.110432 0.110359 0.110285 0.110214 0.110141 0.110069 0.109996 0.109923 0.109851 0.109779 0.109707 0.109635 0.109562 0.109491 0.10942 0.109348 0.109277 0.109205 0.109135 0.109064 0.108993 0.108923 0.108852 0.108782 0.108713 0.108643 0.108574 0.108504 0.108436 0.108368 0.1083 0.108231 0.108163 0.108097 0.108031 0.107964 0.107898 0.107832 0.107768 0.107705 0.107641 0.107577 0.107515 0.107454 0.107394 0.107334 0.107274 0.107216 0.107159 0.107104 0.107049 0.106994 0.106941 0.10689 0.106842 0.106794 0.106746 0.106702 0.106659 0.106621 0.106583 0.106545 0.106512 0.106481 0.106457 0.106434 0.10641 0.106395 0.106381 0.10638 0.106379 0.106378 0.106391 0.106406 0.106438 0.106471 0.106503 0.106554 0.106609 0.106708 0.106806 0.106905 0.107048 0.107196 0.10735 0.107505 0.107659 0.107812 0.107984 0.108373 0.1088 0.109294 0.109957 0.110725 0.110941 0.111014 0.111087 0.110602 0.110213 0.109728 0.109244 0.108759 0.108219 0.107782 0.107357 0.106931 0.106506 0.106095 0.105766 0.105415 0.105063 0.104711 0.104346 0.103969 0.103574 0.10318 0.102785 0.10238 0.101952 0.101518 0.101083 0.100649 0.100211 0.0998426 0.0994713 0.0991001 0.0987289 0.0979607 0.0978987 0.0978362 0.0977737 0.0977112 0.0975203