# vtk DataFile Version 2.0
track0
ASCII
DATASET POLYDATA
POINTS 10971 float
-0.0205 0.001 1e-05
-0.02052 0.00100031 1e-05
-0.02054 0.00100057 1e-05
-0.02056 0.00100076 1e-05
-0.02058 0.00100088 1e-05
-0.0206 0.00100095 1e-05
-0.0205 0.00367778 1e-05
-0.02052 0.00367794 1e-05
-0.02054 0.00367807 1e-05
-0.02056 0.00367817 1e-05
-0.02058 0.00367824 1e-05
-0.0206 0.00367827 1e-05
-0.0205 0.00635556 1e-05
-0.02052 0.00635561 1e-05
-0.02054 0.00635565 1e-05
-0.02056 0.00635568 1e-05
-0.02058 0.0063557 1e-05
-0.0206 0.00635571 1e-05
-0.0205 0.00903333 1e-05
-0.02052 0.00903336 1e-05
-0.02054 0.00903338 1e-05
-0.02056 0.00903339 1e-05
-0.02058 0.0090334 1e-05
-0.0206 0.00903341 1e-05
-0.0205 0.0117111 1e-05
-0.02052 0.0117111 1e-05
-0.02054 0.0117111 1e-05
-0.02056 0.0117111 1e-05
-0.02058 0.0117111 1e-05
-0.0206 0.0117111 1e-05
-0.0205 0.0143889 1e-05
-0.02052 0.0143889 1e-05
-0.02054 0.0143889 1e-05
-0.02056 0.0143889 1e-05
-0.02058 0.0143889 1e-05
-0.0206 0.0143889 1e-05
-0.0205 0.0170667 1e-05
-0.02052 0.0170666 1e-05
-0.02054 0.0170666 1e-05
-0.02056 0.0170666 1e-05
-0.02058 0.0170666 1e-05
-0.0206 0.0170666 1e-05
-0.0205 0.0197444 1e-05
-0.02052 0.0197444 1e-05
-0.02054 0.0197443 1e-05
-0.02056 0.0197442 1e-05
-0.02058 0.0197442 1e-05
-0.0206 0.0197442 1e-05
-0.0205 0.0224222 1e-05
-0.02052 0.022422 1e-05
-0.02054 0.0224219 1e-05
-0.02056 0.0224217 1e-05
-0.02058 0.0224217 1e-05
-0.0206 0.0224216 1e-05
-0.0205 0.0251 1e-05
-0.02052 0.025098 1e-05
-0.02054 0.0250964 1e-05
-0.0205601 0.0250952 1e-05
-0.0205802 0.0250944 1e-05
-0.0206 0.025094 1e-05
-0.0205 0.001 1e-05
-0.0202034 0.000995344 1e-05
-0.0199071 0.000981594 1e-05
-0.0196114 0.000958852 1e-05
-0.0193165 0.000926848 1e-05
-0.0190172 0.000887523 1e-05
-0.0187132 0.000848099 1e-05
-0.0184092 0.000809577 1e-05
-0.0181051 0.000771938 1e-05
-0.0178006 0.000737113 1e-05
-0.0174976 0.000705168 1e-05
-0.0174046 0.000696248 1e-05
-0.0173116 0.000687615 1e-05
-0.0172186 0.000679223 1e-05
-0.0171255 0.000671041 1e-05
-0.0170033 0.000660565 1e-05
-0.0168104 0.000644586 1e-05
-0.0166174 0.000629514 1e-05
-0.0164243 0.000615307 1e-05
-0.0162312 0.000601923 1e-05
-0.0160387 0.000589266 1e-05
-0.0157586 0.000571333 1e-05
-0.0154783 0.000554941 1e-05
-0.0151981 0.000539839 1e-05
-0.0149177 0.000525854 1e-05
-0.0146381 0.000512475 1e-05
-0.0143692 0.000500036 1e-05
-0.0141002 0.000488662 1e-05
-0.0138312 0.000478275 1e-05
-0.0135621 0.000468479 1e-05
-0.0132934 0.000458979 1e-05
-0.0130353 0.000450122 1e-05
-0.0127771 0.000442044 1e-05
-0.0125188 0.000434624 1e-05
-0.0122606 0.000427535 1e-05
-0.0120025 0.000420668 1e-05
-0.0117547 0.000414227 1e-05
-0.0115068 0.000408357 1e-05
-0.0112589 0.000402835 1e-05
-0.011011 0.000397544 1e-05
-0.0107632 0.000392458 1e-05
-0.0105252 0.000387652 1e-05
-0.0102873 0.000383274 1e-05
-0.0100493 0.000379062 1e-05
-0.0098113 0.000375012 1e-05
-0.00957337 0.000371123 1e-05
-0.00934491 0.000367441 1e-05
-0.00911645 0.00036403 1e-05
-0.00888798 0.000360736 1e-05
-0.00865952 0.000357555 1e-05
-0.00843108 0.000354488 1e-05
-0.00821175 0.00035159 1e-05
-0.00799242 0.000348861 1e-05
-0.00777309 0.000346213 1e-05
-0.00755375 0.000343644 1e-05
-0.00733443 0.000341155 1e-05
-0.00712387 0.000338805 1e-05
-0.0069133 0.000336556 1e-05
-0.00670273 0.000334359 1e-05
-0.00649216 0.000332216 1e-05
-0.0062816 0.000330124 1e-05
-0.00607944 0.000328149 1e-05
-0.00587729 0.000326224 1e-05
-0.00567514 0.000324327 1e-05
-0.00547298 0.000322459 1e-05
-0.00527083 0.000320619 1e-05
-0.00523119 0.000320264 1e-05
-0.00519155 0.000319909 1e-05
-0.00515191 0.000319554 1e-05
-0.00511227 0.000319199 1e-05
-0.00507225 0.000318841 1e-05
-0.00491789 0.00031746 1e-05
-0.00476353 0.000316081 1e-05
-0.00460917 0.000314705 1e-05
-0.0044548 0.000313331 1e-05
-0.00430044 0.000311959 1e-05
-0.00411412 0.000310281 1e-05
-0.0039278 0.000308599 1e-05
-0.00374147 0.000306884 1e-05
-0.00355515 0.000305137 1e-05
-0.00336883 0.000303359 1e-05
-0.00318995 0.000301565 1e-05
-0.00301107 0.000299748 1e-05
-0.00283219 0.000297831 1e-05
-0.00265332 0.000295816 1e-05
-0.00247443 0.000293703 1e-05
-0.0023027 0.000291481 1e-05
-0.00213097 0.000289193 1e-05
-0.00195924 0.000286663 1e-05
-0.00178752 0.000283894 1e-05
-0.00161577 0.00028089 1e-05
-0.0014509 0.000277589 1e-05
-0.00128603 0.000274135 1e-05
-0.00112118 0.000269975 1e-05
-0.00095635 0.000265126 1e-05
-0.000791418 0.0002596 1e-05
-0.000633135 0.000253101 1e-05
-0.000474873 0.000246089 1e-05
-0.000316703 0.000237234 1e-05
-0.000158647 0.00022655 1e-05
0 0.000213848 1e-05
0.000105677 0.000203396 1e-05
0.00021105 0.00019022 1e-05
0.000316157 0.000175074 1e-05
0.000421108 0.000158879 1e-05
0.000528387 0.000142427 1e-05
0.000634886 0.00012621 1e-05
0.000741218 0.000108927 1e-05
0.000847416 9.08451e-05 1e-05
0.000953611 7.27475e-05 1e-05
0.00106088 5.45461e-05 1e-05
0.00112729 4.36369e-05 1e-05
0.00119368 3.26096e-05 1e-05
0.00126008 2.16497e-05 1e-05
0.00132649 1.0772e-05 1e-05
0.00139278 0 1e-05
0.00143372 -6.60197e-06 1e-05
0.00147468 -1.31762e-05 1e-05
0.00151563 -1.97226e-05 1e-05
0.0015566 -2.62412e-05 1e-05
0.00159752 -3.27247e-05 1e-05
0.00170568 -4.94295e-05 1e-05
0.00181383 -6.62309e-05 1e-05
0.00192201 -8.27896e-05 1e-05
0.00203023 -9.91044e-05 1e-05
0.00213833 -0.000114995 1e-05
0.00224733 -0.000130231 1e-05
0.00235631 -0.000145589 1e-05
0.00246528 -0.00016106 1e-05
0.00257429 -0.000176289 1e-05
0.00268334 -0.000191018 1e-05
0.00279319 -0.000205345 1e-05
0.00290303 -0.000219742 1e-05
0.00301286 -0.000234209 1e-05
0.00312271 -0.000248542 1e-05
0.00323259 -0.000262579 1e-05
0.00334329 -0.000276374 1e-05
0.00345399 -0.000290223 1e-05
0.00356469 -0.000304009 1e-05
0.00367541 -0.0003177 1e-05
0.00378611 -0.000331294 1e-05
0.003853 -0.000339395 1e-05
0.00391989 -0.000347507 1e-05
0.00398678 -0.000355598 1e-05
0.00405368 -0.00036367 1e-05
0.00412124 -0.000371802 1e-05
0.00416578 -0.00037715 1e-05
0.00421032 -0.000382488 1e-05
0.00425486 -0.000387818 1e-05
0.0042994 -0.00039314 1e-05
0.00434393 -0.000398451 1e-05
0.00445636 -0.000411799 1e-05
0.00456879 -0.000425184 1e-05
0.00468122 -0.000438549 1e-05
0.00479365 -0.000451895 1e-05
0.00490609 -0.000465223 1e-05
0.0050194 -0.000478522 1e-05
0.00513269 -0.000491952 1e-05
0.00524597 -0.00050543 1e-05
0.00535926 -0.00051892 1e-05
0.00547262 -0.000532376 1e-05
0.00558681 -0.000545849 1e-05
0.00570098 -0.000559457 1e-05
0.00581513 -0.0005732 1e-05
0.00592928 -0.000586982 1e-05
0.00604356 -0.000600748 1e-05
0.00615863 -0.000614577 1e-05
0.00627369 -0.00062855 1e-05
0.00638873 -0.000642664 1e-05
0.00650376 -0.00065686 1e-05
0.00661893 -0.000671096 1e-05
0.0067349 -0.000685437 1e-05
0.00685085 -0.000699931 1e-05
0.00696679 -0.000714542 1e-05
0.00708271 -0.000729255 1e-05
0.00719878 -0.00074409 1e-05
0.0072917 -0.000756008 1e-05
0.00738461 -0.000768022 1e-05
0.0074775 -0.000780114 1e-05
0.00757039 -0.000792282 1e-05
0.00765658 -0.000803645 1e-05
0.00768189 -0.000807001 1e-05
0.0077072 -0.000810363 1e-05
0.00773251 -0.000813731 1e-05
0.00775782 -0.000817105 1e-05
0.00778313 -0.000820485 1e-05
0.00790091 -0.000836228 1e-05
0.00801867 -0.000852125 1e-05
0.00813641 -0.00086816 1e-05
0.00825414 -0.000884334 1e-05
0.00837203 -0.000900671 1e-05
0.00849073 -0.000917221 1e-05
0.00860939 -0.000933982 1e-05
0.00872804 -0.000950909 1e-05
0.00884666 -0.00096799 1e-05
0.00896551 -0.000985238 1e-05
0.00908513 -0.00100272 1e-05
0.00920472 -0.00102041 1e-05
0.00932427 -0.00103832 1e-05
0.0094438 -0.00105641 1e-05
0.0095636 -0.00107467 1e-05
0.00968415 -0.00109319 1e-05
0.00980466 -0.00111193 1e-05
0.00992514 -0.0011309 1e-05
0.0100456 -0.00115006 1e-05
0.0101663 -0.00116944 1e-05
0.0102878 -0.0011891 1e-05
0.0104093 -0.001209 1e-05
0.0105307 -0.0012291 1e-05
0.0106521 -0.00124942 1e-05
0.0107738 -0.00127 1e-05
0.010804 -0.00127517 1e-05
0.0108343 -0.00128035 1e-05
0.0108646 -0.00128555 1e-05
0.0108949 -0.00129077 1e-05
0.0109243 -0.00129584 1e-05
0.0110166 -0.00131183 1e-05
0.0111089 -0.00132793 1e-05
0.0112012 -0.00134416 1e-05
0.0112935 -0.00136052 1e-05
0.0113859 -0.00137703 1e-05
0.0115093 -0.00139923 1e-05
0.0116326 -0.00142169 1e-05
0.0117559 -0.00144438 1e-05
0.0118792 -0.0014673 1e-05
0.0120028 -0.00149052 1e-05
0.0121272 -0.00151408 1e-05
0.0122515 -0.00153792 1e-05
0.0123757 -0.00156203 1e-05
0.0124999 -0.00158639 1e-05
0.0126245 -0.00161106 1e-05
0.0127498 -0.00163609 1e-05
0.0128751 -0.0016614 1e-05
0.0130003 -0.00168699 1e-05
0.0131254 -0.00171284 1e-05
0.0132511 -0.00173906 1e-05
0.0133542 -0.00176079 1e-05
0.0134574 -0.00178272 1e-05
0.0135604 -0.00180482 1e-05
0.0136635 -0.0018271 1e-05
0.0137576 -0.00184762 1e-05
0.0137825 -0.00185311 1e-05
0.0138075 -0.00185862 1e-05
0.0138325 -0.00186413 1e-05
0.0138575 -0.00186965 1e-05
0.0138825 -0.00187519 1e-05
0.0140098 -0.00190345 1e-05
0.014137 -0.00193199 1e-05
0.0142641 -0.0019608 1e-05
0.0143912 -0.0019899 1e-05
0.0145188 -0.00201943 1e-05
0.0146471 -0.00204937 1e-05
0.0147752 -0.00207962 1e-05
0.0149033 -0.0021102 1e-05
0.0150314 -0.00214106 1e-05
0.0151601 -0.00217236 1e-05
0.0152893 -0.0022041 1e-05
0.0154185 -0.00223616 1e-05
0.0155476 -0.00226854 1e-05
0.0156766 -0.00230123 1e-05
0.0158063 -0.00233443 1e-05
0.0159045 -0.00235979 1e-05
0.0160027 -0.00238535 1e-05
0.0161008 -0.00241108 1e-05
0.0161989 -0.002437 1e-05
0.0162896 -0.00246115 1e-05
0.0163232 -0.00247016 1e-05
0.0163568 -0.0024792 1e-05
0.0163904 -0.00248825 1e-05
0.016424 -0.00249732 1e-05
0.0164576 -0.00250643 1e-05
0.0165889 -0.00254207 1e-05
0.0167201 -0.00257805 1e-05
0.0168511 -0.00261435 1e-05
0.0169821 -0.00265098 1e-05
0.0171139 -0.00268819 1e-05
0.0172462 -0.00272588 1e-05
0.0173784 -0.00276392 1e-05
0.0175105 -0.00280233 1e-05
0.0176425 -0.00284109 1e-05
0.0177754 -0.00288047 1e-05
0.0179087 -0.00292033 1e-05
0.0180419 -0.00296057 1e-05
0.018175 -0.00300117 1e-05
0.018308 -0.00304214 1e-05
0.018442 -0.00308381 1e-05
0.0184778 -0.00309506 1e-05
0.0185136 -0.00310634 1e-05
0.0185494 -0.00311764 1e-05
0.0185853 -0.00312898 1e-05
0.0186202 -0.00314005 1e-05
[...]
POINT_DATA 10971
 FIELD attributes 1
U 3 10971 float
0.154393 	-0.00242416 	0 0.153927 	-0.00193933 	0 0.153452 	-0.00145447 	0 0.152968 	-0.000969605 	0 0.152475 	-0.000484723 	0 0.151972 	0 	0
0.49467 	-0.00406329 	0 0.494804 	-0.00325063 	0 0.494934 	-0.00243797 	0 0.49506 	-0.00162529 	0 0.495183 	-0.000812608 	0 0.495302 	0 	0
0.750918 	-0.00193841 	0 0.751014 	-0.0015515 	0 0.751109 	-0.00116458 	0 0.751203 	-0.00077763 	0 0.751296 	-0.000390661 	0 0.751386 	0 	0
0.91283 	-0.0011351 	0 0.912807 	-0.000908077 	0 0.912783 	-0.000681057 	0 0.912759 	-0.000454038 	0 0.912734 	-0.000227019 	0 0.91271 	0 	0
0.984962 	-0.000194971 	0 0.984756 	-0.000155977 	0 0.984551 	-0.000116982 	0 0.984345 	-7.79883e-05 	0 0.98414 	-3.89941e-05 	0 0.983934 	0 	0
0.970471 	0.000301123 	0 0.970176 	0.000240898 	0 0.969881 	0.000180674 	0 0.969585 	0.000120449 	0 0.96929 	6.02245e-05 	0 0.968995 	0 	0
0.878002 	0.0015072 	0 0.877946 	0.00120576 	0 0.877891 	0.000904317 	0 0.877834 	0.000602878 	0 0.877778 	0.000301438 	0 0.87772 	0 	0
0.690824 	0.00294091 	0 0.690891 	0.00235273 	0 0.690956 	0.00176455 	0 0.69102 	0.00117636 	0 0.691082 	0.000588173 	0 0.691143 	0 	0
0.413871 	0.00417113 	0 0.413988 	0.00333691 	0 0.414101 	0.00250266 	0 0.414209 	0.00166841 	0 0.414312 	0.000834148 	0 0.414411 	0 	0
0.0545904 	0.00544971 	0 0.0546094 	0.00435977 	0 0.0545846 	0.00326788 	0 0.0545159 	0.00217448 	0 0.0544033 	0.00107999 	0 0.0542487 	0 	0
0.154393 	-0.00242416 	0 0.15961 	-0.007407 	0 0.163637 	-0.0125836 	0 0.166584 	-0.0180805 	0 0.168437 	-0.0221248 	0 0.169565 	-0.0219957 	0 0.170614 	-0.021617 	0 0.171772 	-0.0212578 	0 0.175647 	-0.0200892 	0 0.179906 	-0.0189661 	0 0.184943 	-0.0177452 	0 0.186746 	-0.0173351 	0 0.188289 	-0.0169876 	0 0.18968 	-0.0166803 	0 0.191096 	-0.0163774 	0 0.192991 	-0.0159854 	0 0.196246 	-0.0153257 	0 0.199603 	-0.0146882 	0 0.203058 	-0.0140719 	0 0.205829 	-0.0135324 	0 0.206126 	-0.0131963 	0 0.212838 	-0.0124501 	0 0.218257 	-0.01176 	0 0.222787 	-0.0111136 	0 0.223242 	-0.0106811 	0 0.222796 	-0.0103056 	0 0.23006 	-0.00972854 	0 0.237519 	-0.00917092 	0 0.240534 	-0.00875771 	0 0.239185 	-0.00845696 	0 0.237893 	-0.00816126 	0 0.245493 	-0.00768031 	0 0.252179 	-0.00724544 	0 0.254076 	-0.00697506 	0 0.253315 	-0.0067412 	0 0.251179 	-0.00652719 	0 0.259003 	-0.00613252 	0 0.26291 	-0.00585652 	0 0.264606 	-0.00564801 	0 0.26559 	-0.00545154 	0 0.26267 	-0.00530438 	0 0.270681 	-0.00497988 	0 0.27218 	-0.00481724 	0 0.273687 	-0.00465746 	0 0.275244 	-0.00449949 	0 0.272596 	-0.00439268 	0 0.27887 	-0.00416345 	0 0.280175 	-0.00404069 	0 0.281516 	-0.00391911 	0 0.282895 	-0.00379869 	0 0.281202 	-0.00371514 	0 0.285941 	-0.00355766 	0 0.287119 	-0.00346662 	0 0.288324 	-0.00337633 	0 0.289555 	-0.00328679 	0 0.288749 	-0.00322196 	0 0.292157 	-0.00312114 	0 0.293238 	-0.00305853 	0 0.294338 	-0.00299638 	0 0.295456 	-0.00293468 	0 0.295493 	-0.0028868 	0 0.297733 	-0.00283598 	0 0.298752 	-0.00280296 	0 0.299782 	-0.00277018 	0 0.300822 	-0.00273763 	0 0.301691 	-0.00270774 	0 0.302097 	-0.00270619 	0 0.302301 	-0.00270718 	0 0.302505 	-0.00270817 	0 0.30271 	-0.00270916 	0 0.302916 	-0.00271016 	0 0.303677 	-0.0027123 	0 0.304439 	-0.00271447 	0 0.305202 	-0.00271666 	0 0.305966 	-0.00271887 	0 0.302792 	-0.0027265 	0 0.307648 	-0.00277769 	0 0.308654 	-0.00284049 	0 0.309646 	-0.00290296 	0 0.310624 	-0.00296508 	0 0.302519 	-0.0030336 	0 0.312565 	-0.00317533 	0 0.313722 	-0.00336185 	0 0.314838 	-0.00354708 	0 0.315911 	-0.00373104 	0 0.301769 	-0.00390418 	0 0.31822 	-0.00423992 	0 0.319797 	-0.0047123 	0 0.321268 	-0.00518011 	0 0.322634 	-0.00564344 	0 0.299953 	-0.00600389 	0 0.326094 	-0.00683187 	0 0.328275 	-0.00828553 	0 0.330146 	-0.00971217 	0 0.331715 	-0.0111125 	0 0.292262 	-0.0120014 	0 0.335382 	-0.0148598 	0 0.338848 	-0.0189684 	-1.55447e-22 0.340145 	-0.0229922 	-3.11157e-22 0.318239 	-0.0254799 	-4.61545e-22 0.257363 	-0.0254549 	-6.06881e-22 0.308639 	-0.0385932 	-8.27878e-22 0.356451 	-0.0513658 	-1.04042e-21 0.353309 	-0.0545188 	-1.13339e-21 0.335026 	-0.0513794 	-1.02493e-21 0.316382 	-0.0481749 	-9.14529e-22 0.320489 	-0.0520918 	-4.41144e-22 0.32275 	-0.0549539 	-1.14456e-22 0.320295 	-0.0545839 	-2.66293e-22 0.316362 	-0.0536792 	-4.49922e-22 0.305121 	-0.0501241 	-7.92876e-22 0.305242 	-0.0507018 	-1.14992e-21 0.304432 	-0.0502493 	-1.12102e-21 0.303578 	-0.0497228 	-1.06369e-21 0.302751 	-0.0492003 	-1.0071e-21 0.301955 	-0.0486831 	-9.51399e-22 0.30179 	-0.0484467 	-9.66547e-22 0.301632 	-0.0482114 	-9.81742e-22 0.301483 	-0.0479772 	-9.96985e-22 0.301343 	-0.0477439 	-1.01228e-21 0.301665 	-0.0465899 	-1.01841e-21 0.303367 	-0.0471305 	-5.28158e-22 0.303239 	-0.0464139 	-1.8525e-22 0.303165 	-0.0457037 	1.56179e-22 0.303015 	-0.044546 	2.81666e-22 0.302636 	-0.0423007 	-1.15145e-22 0.305016 	-0.0429813 	-4.69982e-23 0.307322 	-0.0436329 	2.04688e-23 0.307142 	-0.0429106 	6.85607e-23 0.306509 	-0.0413998 	1.37405e-22 0.305971 	-0.0399052 	2.06858e-22 0.307867 	-0.0403538 	1.04718e-22 0.30975 	-0.0407999 	2.50459e-24 0.311103 	-0.0405909 	6.38332e-23 0.311019 	-0.0397325 	1.90076e-22 0.310575 	-0.0387013 	3.34025e-22 0.312187 	-0.0390572 	4.13868e-22 0.313401 	-0.0390282 	4.06018e-22 0.314516 	-0.038893 	3.73524e-22 0.315647 	-0.0387609 	3.41207e-22 0.315825 	-0.0382498 	3.10036e-22 0.316591 	-0.0383914 	2.90691e-22 0.317142 	-0.0383625 	2.77775e-22 0.317697 	-0.0383343 	2.64895e-22 0.318255 	-0.0383065 	2.52048e-22 0.318821 	-0.0382791 	2.39109e-22 0.319292 	-0.0382724 	2.45172e-22 0.319765 	-0.0382659 	2.51226e-22 0.320238 	-0.0382596 	2.5727e-22 0.320713 	-0.0382536 	2.63306e-22 0.32116 	-0.0381286 	1.74478e-22 0.322491 	-0.0383932 	5.94724e-23 0.323469 	-0.0384529 	-3.54884e-23 0.324449 	-0.038513 	-1.30385e-22 0.325432 	-0.0385735 	-2.25217e-22 0.326233 	-0.0382927 	-4.23788e-23 0.32791 	-0.0388714 	-1.46172e-23 0.328985 	-0.0391399 	-3.08509e-23 0.3298 	-0.0392744 	-6.61204e-23 0.330461 	-0.039222 	-1.01236e-22 0.331037 	-0.0390599 	-1.36316e-22 0.332492 	-0.0396313 	-4.52548e-22 0.333931 	-0.0401996 	-7.68655e-22 0.334694 	-0.0404117 	-8.17955e-22 0.335083 	-0.0403641 	-6.1512e-22 0.335476 	-0.040317 	-4.12072e-22 0.336722 	-0.0408919 	-5.90812e-22 0.337954 	-0.0414639 	-7.69506e-22 0.338884 	-0.0418222 	-7.42991e-22 0.339247 	-0.0419312 	-5.62324e-22 0.339477 	-0.0419815 	-3.45154e-22 0.340527 	-0.0425659 	-2.27961e-22 0.341354 	-0.04302 	-1.82004e-22 0.34208 	-0.0434173 	-1.66613e-22 0.342795 	-0.0438126 	-1.51378e-22 0.342991 	-0.0439938 	-1.66223e-22 0.343611 	-0.0444341 	-2.14587e-22 0.344048 	-0.0447808 	-3.27364e-22 0.344477 	-0.0451262 	-4.40292e-22 0.344899 	-0.0454702 	-5.5337e-22 0.345284 	-0.0457881 	-6.58443e-22 0.345428 	-0.0458852 	-6.87171e-22 0.345571 	-0.0459823 	-7.15906e-22 0.345713 	-0.0460793 	-7.44649e-22 0.345856 	-0.0461762 	-7.73398e-22 0.345969 	-0.0462456 	-7.59359e-22 0.346591 	-0.0467875 	-8.38305e-22 0.3471 	-0.0472724 	-8.44528e-22 0.347598 	-0.0477552 	-8.51215e-22 0.348086 	-0.0482358 	-8.58363e-22 0.348381 	-0.0485745 	-4.45876e-22 0.349193 	-0.0493236 	-3.17124e-22 0.34962 	-0.049881 	-1.86472e-22 0.349944 	-0.0503899 	-5.52357e-23 0.350123 	-0.0508102 	-4.20125e-23 0.350195 	-0.0511667 	-1.14724e-22 0.35082 	-0.0519127 	-6.39505e-23 0.351428 	-0.0526553 	-1.3337e-23 0.35162 	-0.0531959 	-6.24839e-23 0.351523 	-0.0535888 	-1.86749e-22 0.351416 	-0.0539809 	-3.11298e-22 0.351861 	-0.054723 	-7.01015e-22 0.352258 	-0.0554472 	-1.03424e-21 0.352418 	-0.0560591 	-9.54351e-22 0.352325 	-0.0565593 	-6.90401e-22 0.352049 	-0.0569803 	-2.93925e-22 0.352318 	-0.0577172 	-1.71457e-22 0.35233 	-0.0583438 	-3.16187e-22 0.352311 	-0.0589605 	-4.79323e-22 0.352276 	-0.0595743 	-6.42931e-22 0.352099 	-0.0601318 	-8.13621e-22 0.352115 	-0.0603087 	-7.97588e-22 0.352074 	-0.0604627 	-8.31942e-22 0.352033 	-0.0606165 	-8.66352e-22 0.35199 	-0.0607701 	-9.00818e-22 0.351948 	-0.0609193 	-9.34378e-22 0.351917 	-0.0614024 	-1.05195e-21 0.351878 	-0.0618842 	-1.17013e-21 0.351832 	-0.0623645 	-1.28893e-21 0.351777 	-0.0628434 	-1.40835e-21 0.351594 	-0.0632468 	-9.24645e-22 0.351708 	-0.0640512 	-1.09571e-21 0.351506 	-0.0646897 	-9.96227e-22 0.35129 	-0.0653259 	-8.96945e-22 0.350965 	-0.0659064 	-6.57399e-22 0.350513 	-0.0664243 	-2.52718e-22 0.350484 	-0.0672218 	-1.65384e-22 0.350438 	-0.0680161 	-7.76115e-23 0.350071 	-0.0686508 	0 0.349468 	-0.0691695 	0 0.348849 	-0.0696881 	0 0.348657 	-0.0704641 	0 0.34839 	-0.0712101 	3.29339e-23 0.347944 	-0.0718757 	1.60216e-22 0.347398 	-0.0724974 	2.74127e-22 0.34662 	-0.0730131 	3.5371e-22 0.346326 	-0.0736254 	3.54149e-22 0.345845 	-0.0741569 	3.5364e-22 0.345353 	-0.0746866 	3.53428e-22 0.34485 	-0.0752145 	3.53513e-22 0.34438 	-0.075695 	3.53864e-22 0.344282 	-0.0758272 	3.75992e-22 0.344183 	-0.0759593 	3.98182e-22 0.344084 	-0.0760913 	4.20434e-22 0.343984 	-0.0762232 	4.42748e-22 0.343853 	-0.0763347 	2.94062e-22 0.343339 	-0.0770355 	-6.0554e-22 0.342736 	-0.0776894 	-1.12666e-21 0.342117 	-0.0783411 	-1.65199e-21 0.341462 	-0.0789766 	-1.91172e-21 0.340636 	-0.0795182 	-3.47442e-22 0.340146 	-0.0802937 	-1.1153e-21 0.339606 	-0.0810468 	-1.80087e-21 0.338818 	-0.0816649 	-1.87103e-21 0.337856 	-0.0821874 	-1.09159e-21 0.336873 	-0.0827108 	-3.08411e-22 0.336235 	-0.0834529 	-2.22514e-22 0.335554 	-0.0841785 	-1.36899e-22 0.334695 	-0.0848131 	-5.09276e-23 0.333725 	-0.0853928 	0 0.332592 	-0.0858966 	0 0.332001 	-0.0864307 	0 0.331267 	-0.0868941 	-1.08266e-22 0.330514 	-0.0873507 	-2.25119e-22 0.329751 	-0.0878058 	-3.42116e-22 0.329035 	-0.0882256 	-4.50535e-22 0.328806 	-0.0883878 	-4.73784e-22 0.328576 	-0.0885499 	-4.97009e-22 0.328345 	-0.0887118 	-5.20207e-22 0.328111 	-0.0888729 	-5.43365e-22 0.327843 	-0.0890068 	-5.65979e-22 0.326964 	-0.0896717 	-4.62144e-22 0.32598 	-0.0902746 	-3.97437e-22 0.32498 	-0.0908755 	-3.32118e-22 0.32392 	-0.0914411 	-3.15083e-22 0.322738 	-0.0919348 	-4.06052e-22 0.321831 	-0.0926324 	-2.49968e-22 0.320906 	-0.0933273 	-9.36468e-23 0.319773 	-0.0938961 	-4.84992e-23 0.318472 	-0.0943606 	-1.70061e-22 0.317145 	-0.0948267 	-2.92738e-22 0.316102 	-0.0954859 	-2.25854e-22 0.314961 	-0.0960891 	-1.59257e-22 0.313729 	-0.0966412 	-9.29459e-23 0.31248 	-0.0971906 	-2.69757e-23 0.311091 	-0.0976756 	5.25132e-23 0.310777 	-0.0978416 	8.13157e-24 0.310428 	-0.0979856 	0 0.31007 	-0.0981245 	0 0.30971 	-0.0982633 	0 0.309358 	-0.0983984 	0 0.308472 	-0.0988008 	0 0.307577 	-0.099202 	0 0.306673 	-0.0996021 	0 0.305751 	-0.0999918 	0 0.304743 	-0.100312 	0 0.303593 	-0.100942 	0 0.302347 	-0.101514 	4.1826e-23 0.301003 	-0.102026 	1.27965e-22 0.299529 	-0.102432 	9.3833e-23 0.298021 	-0.102837 	5.50989e-23 0.296745 	-0.103426 	-4.28996e-23 0.295432 	-0.103996 	-1.34071e-22 0.293997 	-0.104474 	-1.86995e-22 0.292513 	-0.104928 	-2.2163e-22 0.290871 	-0.105302 	-1.83778e-22 0.290183 	-0.105572 	1.24221e-22 0.289444 	-0.105803 	1.19666e-22 0.288686 	-0.10602 	1.23584e-23 0.287923 	-0.106237 	-9.56553e-23 0.28719 	-0.106444 	-1.99611e-22 0.286458 	-0.106686 	-2.70866e-22 0.285723 	-0.106927 	-3.42697e-22 0.284983 	-0.107167 	-4.15109e-22 0.284231 	-0.107397 	-4.20568e-22 0.283437 	-0.107579 	-1.25497e-22 0.28207 	-0.108122 	-8.66102e-22 0.280577 	-0.108577 	-1.24026e-21 0.279044 	-0.10901 	-1.53663e-21 0.277423 	-0.109349 	-9.91245e-22 0.27575 	-0.109669 	-2.5547e-22 0.274266 	-0.11017 	-1.89085e-22 0.272755 	-0.110659 	-1.22644e-22 0.271141 	-0.111041 	-5.02658e-23 0.26947 	-0.111391 	2.4483e-23 0.267667 	-0.111676 	1.06402e-22 0.266903 	-0.111895 	2.54263e-23 0.266102 	-0.112077 	0 0.265283 	-0.112241 	0 0.26446 	-0.112404 	0 0.263666 	-0.112559 	0 0.262823 	-0.112756 	0 0.261975 	-0.112951 	0 0.261123 	-0.113146 	0 0.260259 	-0.113324 	-3.18791e-23 0.259364 	-0.113455 	-1.61424e-22 0.257805 	-0.113889 	-4.14054e-23 0.256159 	-0.114256 	-3.65551e-23 0.254457 	-0.114587 	-9.2184e-23 0.252685 	-0.1148 	-4.02409e-22 0.250864 	-0.115006 	-7.34642e-22 0.249195 	-0.115395 	-2.18663e-21 0.247489 	-0.115747 	-2.98077e-21 0.245718 	-0.116004 	-1.92891e-21 0.243928 	-0.116257 	-8.72673e-22 0.242 	-0.116438 	9.29045e-22 0.241518 	-0.116531 	1.42616e-21 0.241023 	-0.116602 	1.57903e-21 0.240519 	-0.11666 	1.51506e-21 0.240014 	-0.116718 	1.45081e-21 0.239519 	-0.116774 	1.38771e-21 0.238253 	-0.116954 	1.37643e-21 0.236978 	-0.117132 	1.36397e-21 0.235694 	-0.117309 	1.35031e-21 0.234395 	-0.117454 	1.40816e-21 0.23306 	-0.11753 	1.63114e-21 0.231333 	-0.117826 	2.69072e-21 0.229587 	-0.118118 	3.74656e-21 0.227737 	-0.118281 	3.17302e-21 0.225844 	-0.118337 	9.37964e-22 0.223895 	-0.118393 	-1.33987e-21 0.222196 	-0.11862 	-4.3716e-21 0.220463 	-0.118765 	-5.19365e-21 0.218701 	-0.118855 	-4.51633e-21 0.216923 	-0.118941 	-3.83228e-21 0.215258 	-0.119019 	-3.19159e-21 0.215092 	-0.119031 	-3.17402e-21 0.214926 	-0.119042 	-3.15641e-21 0.21476 	-0.119054 	-3.13877e-21 0.214594 	-0.11906 	-3.12542e-21 0.214429 	-0.119058 	-3.11991e-21 0.212612 	-0.11917 	-2.14101e-21 0.21076 	-0.119253 	-1.06737e-21 0.208889 	-0.119334 	5.62137e-24 0.207007 	-0.119337 	6.13036e-22 0.205073 	-0.119257 	7.39966e-22 0.203201 	-0.11938 	2.11158e-21 0.201307 	-0.1195 	3.47878e-21 0.199402 	-0.119471 	3.01832e-21 0.197448 	-0.119384 	2.09571e-21 0.195392 	-0.119247 	8.44893e-22 0.194563 	-0.119275 	1.1903e-21 0.19373 	-0.119267 	1.18923e-21 0.192894 	-0.119227 	8.6485e-22 0.192056 	-0.119185 	5.39563e-22 0.19124 	-0.119145 	2.23716e-22 0.190138 	-0.119109 	1.84794e-22 0.189029 	-0.119072 	1.45824e-22 0.187914 	-0.119034 	1.06806e-22 0.186847 	-0.118963 	9.08842e-23 0.18584 	-0.118842 	1.09103e-22 0.183872 	-0.118806 	-1.63657e-21 0.181885 	-0.118762 	-3.33475e-21 0.179965 	-0.118606 	-3.54467e-21 0.178191 	-0.118344 	-1.95621e-21 0.176349 	-0.118072 	-3.2383e-22 0.174641 	-0.117992 	-8.30222e-23 0.17301 	-0.11785 	3.41273e-23 0.171455 	-0.117644 	2.71878e-23 0.169889 	-0.117437 	2.03044e-23 0.168401 	-0.117239 	1.38714e-23 0.168027 	-0.117192 	9.78969e-24 0.167652 	-0.117146 	5.70795e-24 0.167277 	-0.117099 	1.62622e-24 0.166936 	-0.11704 	0 0.166617 	-0.116973 	0 0.164548 	-0.116718 	1.06292e-24 0.162508 	-0.116417 	7.73967e-24 0.160448 	-0.116113 	1.43308e-23 0.158652 	-0.115704 	1.92587e-22 0.156806 	-0.115268 	3.92854e-22 0.154993 	-0.115007 	1.96514e-21 0.153247 	-0.114712 	2.80219e-21 0.15166 	-0.11435 	2.06519e-21 0.150062 	-0.113984 	1.3247e-21 0.148542 	-0.113637 	6.22191e-22 0.148187 	-0.11356 	5.06109e-22 0.147832 	-0.113483 	3.89899e-22 0.147476 	-0.113406 	2.7356e-22 0.147151 	-0.113314 	3.76185e-22 0.146836 	-0.113215 	5.61675e-22 0.144839 	-0.112786 	3.7009e-22 0.142852 	-0.112311 	2.95811e-22 0.140861 	-0.111824 	2.34424e-22 0.139075 	-0.111223 	3.506e-22 0.137209 	-0.110596 	4.69543e-22 0.135895 	-0.110283 	2.10006e-22 0.134601 	-0.109953 	-2.53223e-23 0.133419 	-0.109559 	-1.58086e-22 0.132231 	-0.109164 	-2.90828e-22 0.131082 	-0.108783 	-4.18468e-22 0.130352 	-0.108551 	-4.39665e-22 0.12962 	-0.108318 	-4.60727e-22 0.128885 	-0.108084 	-4.81654e-22 0.128222 	-0.107814 	-5.69066e-22 0.127562 	-0.107533 	-6.70141e-22 0.125594 	-0.106902 	-1.4839e-21 0.123609 	-0.106266 	-2.29438e-21 0.121738 	-0.105554 	-1.92754e-21 0.119968 	-0.104764 	-4.54747e-22 0.118113 	-0.103939 	1.07343e-21 0.117569 	-0.103753 	1.69772e-21 0.117028 	-0.103565 	2.25785e-21 0.116541 	-0.103348 	1.91151e-21 0.116053 	-0.10313 	1.56483e-21 0.115572 	-0.102915 	1.22297e-21 0.114204 	-0.102324 	9.148e-22 0.112828 	-0.10173 	6.06243e-22 0.111443 	-0.101135 	2.97296e-22 0.110202 	-0.100462 	4.85562e-22 0.10893 	-0.0997647 	7.06707e-22 0.107412 	-0.0991039 	-4.39729e-22 0.105885 	-0.0984397 	-1.57326e-21 0.104517 	-0.0976869 	-1.18216e-21 0.103141 	-0.0969322 	-7.88653e-22 0.101809 	-0.0962036 	-4.07458e-22 0.101414 	-0.0959936 	-2.90429e-22 0.101018 	-0.0957834 	-1.73179e-22 0.100623 	-0.0955723 	-6.64506e-23 0.100273 	-0.095339 	-2.87571e-22 0.0999196 	-0.0951038 	-5.10254e-22 0.0981291 	-0.0941333 	-3.0639e-22 0.0963239 	-0.0931588 	-1.01645e-22 0.0946137 	-0.0921197 	-2.0332e-23 0.0930027 	-0.0910153 	-6.35139e-23 0.0913236 	-0.0898688 	-1.07567e-22 0.0909626 	-0.0896663 	-5.64181e-23 0.090601 	-0.0894636 	-5.27462e-24 0.090275 	-0.0892429 	0 0.0899527 	-0.0890201 	0 0.0896325 	-0.0887989 	0 0.0882979 	-0.0878945 	0 0.086956 	-0.0869882 	0 0.0856241 	-0.0860715 	2.77299e-23 0.0844259 	-0.085085 	2.78353e-22 0.0831959 	-0.0840747 	5.34727e-22 0.0822853 	-0.083451 	5.10667e-22 0.0813712 	-0.0828263 	4.86913e-22 0.0805427 	-0.0821574 	1.60317e-22 0.0797275 	-0.0814805 	-2.18497e-22 0.0789233 	-0.0808137 	-5.91174e-22 0.0782141 	-0.0802355 	-7.79932e-22 0.0775034 	-0.0796568 	-9.68383e-22 0.076805 	-0.0790711 	-1.15616e-21 0.0761767 	-0.0784511 	-1.34183e-21 0.0755427 	-0.0778256 	-1.52904e-21 0.0742774 	-0.0767735 	-3.46376e-21 0.0730072 	-0.07572 	-5.3948e-21 0.0718543 	-0.0746069 	-4.32866e-21 0.0707272 	-0.0734805 	-2.59198e-21 0.0696137 	-0.0723682 	-8.77088e-22 0.0693796 	-0.0721372 	-6.10993e-22 0.0691455 	-0.0719062 	-3.44875e-22 0.0689169 	-0.0716726 	-1.87502e-22 0.0687116 	-0.071428 	-4.82269e-22 0.0685064 	-0.0711834 	-7.77246e-22 0.0671704 	-0.0698327 	-4.58005e-22 0.0658335 	-0.0684816 	-1.38791e-22 0.0645904 	-0.0670863 	-2.43515e-22 0.063424 	-0.0656501 	-6.25655e-22 0.0622666 	-0.0642153 	-1.00018e-21 0.0621402 	-0.0640819 	-1.03039e-21 0.0620139 	-0.0639485 	-1.06061e-21 0.0618999 	-0.0638094 	-1.0604e-21 0.0617891 	-0.0636689 	-1.05232e-21 0.0616784 	-0.0635284 	-1.04422e-21 0.0606669 	-0.062251 	-6.63915e-22 0.0596615 	-0.0609756 	-2.83457e-22 0.058689 	-0.0596901 	1.0008e-22 0.0578267 	-0.0583602 	4.95112e-22 0.0569961 	-0.0570641 	8.81521e-22 0.0566012 	-0.0565369 	1.58721e-21 0.0562078 	-0.0560102 	2.29356e-21 0.0558584 	-0.0554648 	1.99101e-21 0.0555208 	-0.0549161 	1.46717e-21 0.0551811 	-0.0543605 	9.36845e-22 0.0546522 	-0.053491 	6.88432e-22 0.0541303 	-0.0526238 	4.40272e-22 0.053627 	-0.0517536 	2.39046e-22 0.0531905 	-0.050858 	2.80023e-22 0.0527784 	-0.049996 	3.20106e-22 0.0522264 	-0.0490079 	-6.43557e-22 0.0516859 	-0.0480241 	-1.61113e-21 0.0512256 	-0.0470128 	-1.17386e-21 0.0507901 	-0.0460025 	-5.4275e-22 0.0503466 	-0.0449403 	1.19989e-22 0.0502108 	-0.0446006 	3.49849e-22 0.0500771 	-0.0442616 	5.79079e-22 0.0499464 	-0.0439228 	7.8184e-22 0.0498356 	-0.0435743 	5.11909e-22 0.0497297 	-0.0432344 	2.47114e-22 0.0492635 	-0.0419507 	1.53446e-22 0.0488307 	-0.0406805 	5.69232e-23 0.0484687 	-0.0393967 	2.12272e-22 0.0481735 	-0.0380993 	5.94764e-22 0.0479447 	-0.0369353 	9.42503e-22 0.0478754 	-0.036616 	9.17955e-22 0.0478107 	-0.036297 	9.01592e-22 0.047763 	-0.0359706 	9.5839e-22 0.0477186 	-0.0356457 	1.0148e-21 0.0476755 	-0.0353065 	1.07354e-21 0.0475855 	-0.0344878 	1.63641e-21 0.047518 	-0.0336788 	2.19071e-21 0.0474737 	-0.0328796 	2.73613e-21 0.047451 	-0.0320815 	1.42332e-21 0.0474524 	-0.0313511 	-1.05628e-22 0.0475106 	-0.0303392 	-2.04923e-21 0.0476145 	-0.0293476 	-3.88027e-21 0.0477537 	-0.028367 	-3.25546e-21 0.0479411 	-0.0274086 	-2.63887e-21 0.0481322 	-0.0265459 	-1.487e-21 0.0481974 	-0.0263464 	-1.79367e-21 0.0482628 	-0.0261472 	-1.88523e-21 0.048328 	-0.0259482 	-1.72516e-21 0.0483956 	-0.0257504 	-1.56603e-21 0.0484706 	-0.0255398 	-1.39666e-21 0.0487128 	-0.0249053 	-3.00921e-22 0.048981 	-0.0242833 	7.70864e-22 0.0492752 	-0.023674 	1.81846e-21 0.049534 	-0.0231063 	1.73084e-21 0.0497372 	-0.0226135 	4.97784e-22 0.0502828 	-0.0218705 	1.60178e-21 0.050875 	-0.0211487 	2.69718e-21 0.0513683 	-0.0204924 	2.88341e-21 0.0517663 	-0.0199018 	2.19195e-21 0.0521694 	-0.0193655 	1.53187e-21 0.0528873 	-0.0187389 	1.48848e-21 0.0535255 	-0.0181767 	1.15639e-21 0.0541317 	-0.0176569 	6.58266e-22 0.0547711 	-0.0171524 	1.51133e-22 0.0553512 	-0.0166942 	-2.27488e-22 0.055611 	-0.0165339 	-9.39232e-22 0.0558143 	-0.0163955 	-7.95338e-22 0.0560202 	-0.0162583 	-6.53642e-22 0.0562288 	-0.0161223 	-5.14126e-22 0.0564661 	-0.0159709 	-3.59786e-22 0.0569554 	-0.0156685 	-2.25849e-22 0.0574577 	-0.0153724 	-9.84563e-23 0.0579728 	-0.0150823 	2.25108e-23 0.05